eg,chemsys,nelements,formula
0.9661000000000002,Ga-N-O,3,Ga3NO3
0.8802999999999999,Ga-N-O,3,Ga3NO3
1.6791,Ga-N-O,3,Ga3NO3
1.0046999999999997,Ga-N-O,3,Ga3NO3
2.3492,Ga-N-O,3,Ga3NO3
0.9393,Ga-N-O,3,Ga3NO3
1.0145,Ga-N-O,3,Ga3NO3
0.9003000000000001,Ga-N-O,3,Ga3NO3
0.0009000000000001,Ga-N-O,3,Ga3NO3
0.0,Ga-Ni-Sn,3,Ga3Ni12Sn
0.0,Ga-Ni,2,Ga3Ni2
0.0,Ga-Ni,2,Ga3Ni5
0.0,Ga-Ge-Ni,3,Ga3Ni5Ge2
0.0,Ga-Ni-Sn,3,Ga3Ni5Sn2
0.0,Ga-O,2,Ga3O5
0.6769999999999996,Ga-Os,2,Ga3Os
0.0,Ga-P,2,Ga3P
3.1305000000000005,Ga-O-P,3,Ga3PO7
0.0,Ga-Pb,2,Ga3Pb
0.4651999999999994,Ga-N-Pb,3,Ga3Pb3N5
0.0,Ga-Pd,2,Ga3Pd5
0.0,Ga-Pd,2,Ga3Pd7
0.0,Ga-Pt,2,Ga3Pt
0.0,Ga-Pt,2,Ga3Pt2
0.0,Ga-Pt,2,Ga3Pt5
0.0,Ga-Re,2,Ga3Re
0.0,Ga-Rh,2,Ga3Rh
0.0,Ga-Ru,2,Ga3Ru
0.0,Ga-O-S,3,Ga3S2O15
0.0,Ga-Sb,2,Ga3Sb
0.0,Ga-Se,2,Ga3Se
0.0,As-Hf-Ni,3,Hf(Ni2As)2
0.0,Hf-Ni-P,3,Hf(Ni2P)2
0.0,Hf-O-P,3,Hf(PO5)2
2.3179000000000003,Hf-P-S,3,Hf(PS3)2
0.0,Hf-Ni-Si,3,Hf(SiNi)2
1.2626,Cl-Hf-Te,3,Hf(Te2Cl3)2
0.0,Hf-Se-Ti,3,Hf(Ti2Se5)2
0.0,Hf-S-U,3,Hf(US)3
0.0,Ga-Hf-V,3,Hf(VGa2)2
0.0,H-Hf-V,3,Hf(VH2)2
0.0,Al-Hf-Si,3,Hf10(AlSi)3
0.0,Hf-In-Sb,3,Hf10(InSb)3
0.0,Cu-Hf-Sn,3,Hf10CuSn7
0.0,Hf-Mn-Sb,3,Hf10MnSb5
0.0,Hf-Ni-Sb,3,Hf10NiSb5
0.0,Hf-Sb-V,3,Hf10VSb5
0.0,B-Co-Hf,3,Hf2(Co7B2)3
0.0,B-Hf-Ni,3,Hf2(Ni7B2)3
0.0,As-Hf-Ni,3,Hf2(NiAs)3
0.0,Hf-Ni-P,3,Hf2(NiP)3
0.5994000000000006,Hf-S-Se,3,Hf2(SeS)3
0.0,Ga-Hf-Ti,3,Hf2(TiGa)3
0.0,Ag-Hf,2,Hf2Ag
0.1563000000000001,Ag-F-Hf,3,Hf2Ag3F14
0.0,Al-Hf,2,Hf2Al
0.0,Al-Hf,2,Hf2Al3
0.0,Ag-Al-Hf,3,Hf2Al3Ag
0.0,Al-Au-Hf,3,Hf2Al3Au
0.0,Al-C-Hf,3,Hf2Al3C4
0.0,Al-C-Hf,3,Hf2Al3C5
0.0,Al-Co-Hf,3,Hf2Al3Co
0.0,Al-Cu-Hf,3,Hf2Al3Cu
0.0,Al-Hf-Ni,3,Hf2Al3Ni
0.0,Al-Hf-Pd,3,Hf2Al3Pd
0.0,Al-Hf-Zn,3,Hf2Al3Zn
0.0,Al-C-Hf,3,Hf2Al4C5
0.0,Al-Hf-Si,3,Hf2AlSi
0.0,Au-Hf,2,Hf2Au
0.0,B-Hf-Ir,3,Hf2BIr6
0.0,Be-Hf,2,Hf2Be17
0.0,Bi-Hf,2,Hf2Bi
2.9843,Bi-Hf-O,3,Hf2Bi2O7
0.0,B-Bi-Hf,3,Hf2BiB
0.0,C-Hf-N,3,Hf2CN
0.0,C-Hf-S,3,Hf2CS
0.0,Cd-Hf,2,Hf2Cd
0.0,Co-Hf,2,Hf2Co
0.0,Co-Hf-Si,3,Hf2Co3Si4
0.0,Co-Hf-P,3,Hf2Co4P3
0.0,Co-Hf,2,Hf2Co7
0.0,Co-Cu-Hf,3,Hf2CoCu
0.0,Co-Cu-Hf-Sn,4,Hf2CoCuSn2
0.0,Co-Hf-Ir,3,Hf2CoIr
0.0,Co-Hf-Os,3,Hf2CoOs
0.0,Co-Hf-P,3,Hf2CoP
0.0,Co-Hf-Re,3,Hf2CoRe
0.0,Co-Hf-Tc,3,Hf2CoTc
0.0,Cr-Hf-Si,3,Hf2Cr3Si
0.0,Cr-Hf-Si,3,Hf2Cr4Si5
0.0,Cu-Hf,2,Hf2Cu
0.0,Cu-Ge-Hf,3,Hf2CuGe4
0.0,Cu-Hf-Ir,3,Hf2CuIr
0.0,Cu-Hf-Os,3,Hf2CuOs
0.0,Cu-Hf-Re,3,Hf2CuRe
0.0,Cu-Hf-Rh,3,Hf2CuRh
0.032,Cu-Hf-Sb,3,Hf2CuSb3
0.0,Cu-Hf-Si,3,Hf2CuSi4
0.0,Cu-Hf-Tc,3,Hf2CuTc
0.0,Fe-Hf,2,Hf2Fe
0.0,Fe-Hf-Si,3,Hf2Fe3Si
0.0,C-Fe-Hf-S,4,Hf2FeC2S
0.0,Fe-Hf-Ir,3,Hf2FeIr
0.0,Fe-Hf-Os,3,Hf2FeOs
0.0,Fe-Hf-Rh,3,Hf2FeRh
0.0,Fe-Hf-Tc,3,Hf2FeTc
0.0,Ga-Hf,2,Hf2Ga
0.0,Ga-Hf,2,Hf2Ga3
0.0,Co-Ga-Hf,3,Hf2Ga3Co
0.0,Cu-Ga-Hf,3,Hf2Ga3Cu
0.0,Ga-Hf-Ni,3,Hf2Ga3Ni
0.0,Ga-Hf-Sb,3,Hf2GaSb3
0.0,Ge-Hf,2,Hf2Ge
0.0,H-Hf-Pd,3,Hf2H2Pd
0.0,C-H-Hf,3,Hf2HC
0.0,Hf-Hg,2,Hf2Hg
0.0,Hf-In,2,Hf2In5
0.0,C-Hf-In,3,Hf2InC
0.0,Cu-Hf-In,3,Hf2InCu2
0.0,Hf-In-Ni,3,Hf2InNi2
0.0,Hf-In-Pd,3,Hf2InPd2
0.0,Hf-Ir-Pd,3,Hf2IrPd
0.0,Hf-Ir-Rh,3,Hf2IrRh
0.0,Hf-Ir-Ru,3,Hf2IrRu
0.0,Hf-Mg,2,Hf2Mg
0.0,Hf-Mn,2,Hf2Mn
0.0,Co-Hf-Mn,3,Hf2MnCo
0.0,Hf-Ir-Mn,3,Hf2MnIr
0.0,Hf-Mn-Os,3,Hf2MnOs
0.0,Hf-Mn-Rh,3,Hf2MnRh
0.0,Hf-Ir-Mo,3,Hf2MoIr
0.0,Hf-Mo-Pt,3,Hf2MoPt
0.0,Hf-Mo-Rh,3,Hf2MoRh
0.0,Hf-N,2,Hf2N
2.4934000000000003,Hf-N-O,3,Hf2N2O
0.3483,Hf-N-O,3,Hf2N2O
1.9174000000000009,Hf-N-O,3,Hf2N2O
1.066599999999999,Hf-N-O,3,Hf2N2O
2.436,Hf-N-O,3,Hf2N2O
1.9012,Hf-N-O,3,Hf2N2O
0.0863000000000004,Hf-N-O,3,Hf2N2O
2.3555,Hf-N-O,3,Hf2N2O
1.7746000000000004,Hf-N-O,3,Hf2N2O
2.1159,Hf-N-O,3,Hf2N2O
1.3828999999999994,Hf-N-O,3,Hf2N2O
2.0459000000000005,Hf-N-O,3,Hf2N2O
1.4915000000000005,Hf-N-O,3,Hf2N2O
1.0450999999999997,Hf-N-O,3,Hf2N2O
0.0,Hf-Ni,2,Hf2Ni
0.0,Hf-Ni-Sn,3,Hf2Ni2Sn
0.0,Hf-Ni,2,Hf2Ni7
0.0,Hf-Ir-Ni,3,Hf2NiIr
0.0,Hf-Ni-P,3,Hf2NiP
0.0,Hf-Ni-S,3,Hf2NiS4
0.0,Hf-Os,2,Hf2Os
0.0,Hf-Os-Pd,3,Hf2OsPd
0.0,Hf-Os-Rh,3,Hf2OsRh
0.0,Hf-Os-Ru,3,Hf2OsRu
4.9045000000000005,Hf-O-P,3,Hf2P2O9
4.8809000000000005,Hf-O-P,3,Hf2P2O9
0.0,C-Hf-Pb,3,Hf2PbC
0.0,Hf-Pd,2,Hf2Pd
0.0,Hf-Pt,2,Hf2Pt3
0.0,Hf-Ir-Re,3,Hf2ReIr
0.0,Hf-Ni-Re,3,Hf2ReNi
0.0,Hf-Os-Re,3,Hf2ReOs
0.0,Hf-Pd-Re,3,Hf2RePd
0.0,Hf-Re-Rh,3,Hf2ReRh
0.0,Hf-Re-Ru,3,Hf2ReRu
0.0,Hf-Re-Tc,3,Hf2ReTc
0.0,Hf-Rh,2,Hf2Rh
0.0,Hf-Rh-Ru,3,Hf2RuRh
0.0,Hf-S,2,Hf2S
0.8851000000000004,Hf-N-S,3,Hf2SN2
2.0768000000000004,Hf-N-S,3,Hf2SN2
1.7838000000000005,Hf-O-Pb-Sb,4,Hf2Sb2Pb4O13
0.0,Hf-Pd-Sb,3,Hf2Sb3Pd
0.0,Hf-Sb-Te,3,Hf2Sb3Te
0.0,Hf-P-Sb,3,Hf2SbP
0.0,Ga-Hf-Sc,3,Hf2ScGa3
0.0,Hf-Se,2,Hf2Se
0.0,Hf-Se,2,Hf2Se3
0.6071,Hf-N-Se,3,Hf2SeN2
0.0,Hf-Si,2,Hf2Si
0.0,Hf-Ni-Si,3,Hf2Si4Ni3
0.0,As-Hf-Si,3,Hf2SiAs3
0.0,H-Hf-Si,3,Hf2SiH
0.0,Hf-Mo-Si,3,Hf2SiMo3
0.0,Hf-Ni-Si,3,Hf2SiNi3
0.0,Hf-S-Si,3,Hf2SiS2
0.0,Hf-Si-Te,3,Hf2SiTe2
0.0,C-Hf-Sn,3,Hf2SnC
0.0,Hf-N-Ta,3,Hf2TaN3
0.0,Hf-Ir-Tc,3,Hf2TcIr
0.0,Hf-Ni-Tc,3,Hf2TcNi
0.0,Hf-Os-Tc,3,Hf2TcOs
0.0,Hf-Pd-Tc,3,Hf2TcPd
0.0,Hf-Rh-Tc,3,Hf2TcRh
0.0,Hf-Ru-Tc,3,Hf2TcRu
0.0,Hf-Te,2,Hf2Te
0.0,Hf-Te,2,Hf2Te3
0.0,Hf-Tl,2,Hf2Tl
0.0,C-Hf-Tl,3,Hf2TlC
0.0,Hf-U,2,Hf2U
0.0,Ge-Hf-V,3,Hf2V3Ge
0.0,Hf-Ru-V,3,Hf2V3Ru
0.0,Hf-Si-V,3,Hf2VSi2
0.0,Hf-Zn,2,Hf2Zn
0.0,Hf-Re-Zn,3,Hf2ZnRe
0.0,Hf-Tc-Zn,3,Hf2ZnTc
0.0,Al-C-Hf,3,Hf3(Al2C3)2
0.0,Cr-Ga-Hf,3,Hf3(CrGa3)2
0.0,Cu-Ge-Hf,3,Hf3(Cu2Ge)2
0.0,Cu-Hf-Si,3,Hf3(Cu2Si)2
0.0,Cu-Hf-Si,3,Hf3(CuSi)4
0.0,Cu-Ga-Hf,3,Hf3(Ga2Cu)2
0.0,Ga-Hf-Mn,3,Hf3(MnGa3)2
0.0,B-Hf-Ni,3,Hf3(Ni10B3)2
0.0,Ge-Hf-Ni,3,Hf3(NiGe)4
0.0,Ga-Hf-V,3,Hf3(VGa3)2
0.0,Ag-Hf,2,Hf3Ag
0.0,Al-Hf,2,Hf3Al
0.0,Al-Hf,2,Hf3Al2
0.0,Al-C-Hf,3,Hf3Al3C5
0.0,Al-Au-Hf,3,Hf3AlAu2
0.0,Al-Ge-Hf,3,Hf3AlGe5
0.0,Al-Hf-Mo,3,Hf3AlMo8
0.0,Al-Hf-N,3,Hf3AlN
0.0,As-Hf,2,Hf3As2
0.0,Au-Hf,2,Hf3Au
0.0,B-Hf-Ir,3,Hf3B2Ir5
0.0,Be-Hf,2,Hf3Be
0.0,Bi-Hf,2,Hf3Bi
0.0,C-Hf,2,Hf3C
0.0,Co-Hf,2,Hf3Co
0.0,Co-Hf-Si,3,Hf3Co2Si3
0.0,Co-F-Hf,3,Hf3CoF6
0.0,Co-Hf-S,3,Hf3CoS6
0.0,Fe-Hf-Si,3,Hf3Fe2Si3
0.0,Ga-Hf,2,Hf3Ga
0.0,Ga-Hf-Pd-Pt,4,Hf3Ga3Pd2Pt
0.0,Ge-Hf,2,Hf3Ge
0.0,Ge-Hf,2,Hf3Ge2
0.0,Ge-Hf-Mo,3,Hf3GeMo8
4.55,Ge-Hf-O,3,Hf3GeO8
0.0,Hf-Hg,2,Hf3Hg
0.0,Hf-I,2,Hf3I
0.0,Hf-In,2,Hf3In4
0.0470999999999994,Hf-Mg,2,Hf3Mg
0.0,Hf-Mg,2,Hf3Mg
0.0,F-Hf-Mn,3,Hf3MnF6
0.0,Hf-N,2,Hf3N2
3.1036,Hf-N-O,3,Hf3N2O3
3.2891000000000004,Hf-N-O,3,Hf3N2O3
3.2886,Hf-N-O,3,Hf3N2O3
2.9849,Hf-N-O,3,Hf3N2O3
1.0259,Hf-N,2,Hf3N4
1.0917000000000003,Hf-N,2,Hf3N4
0.9216000000000006,Hf-N,2,Hf3N4
1.0064000000000002,Hf-N,2,Hf3N4
0.0,Ga-Hf-Nb,3,Hf3Nb2Ga3
0.0,Hf-Ni,2,Hf3Ni
1.6403,F-Hf-Ni-O,4,Hf3Ni(OF)6
0.0,F-Hf-Ni-O,4,Hf3Ni(OF)6
0.7419999999999991,Hf-Ni-Sb,3,Hf3Ni3Sb4
0.0,Hf-Ni,2,Hf3Ni7
0.0,F-Hf-Ni,3,Hf3NiF6
0.0,Hf-P,2,Hf3P2
0.0,Hf-Pb,2,Hf3Pb
0.0,Hf-Pt,2,Hf3Pt
0.0,Hf-Rh,2,Hf3Rh5
0.0,Hf-Sb,2,Hf3Sb
0.0,Hf-Sc,2,Hf3Sc
4.190799999999999,Hf-O-Sc,3,Hf3Sc4O12
0.0,Ga-Hf-Sc,3,Hf3ScGa12
0.0,Hf-Sc-Si,3,Hf3ScSi4
0.0,Hf-Se,2,Hf3Se
0.0,Hf-Si,2,Hf3Si
0.0,Hf-Si,2,Hf3Si2
0.0,Hf-Ni-Si,3,Hf3Si3Ni2
0.0,Hf-Mo-Si,3,Hf3SiMo8
0.0,Hf-Sn,2,Hf3Sn
3.5875000000000004,Hf-O-Sn,3,Hf3SnO8
0.0,Hf-Ta,2,Hf3Ta
0.0,Co-Hf-Ta,3,Hf3TaCo8
0.0,Fe-Hf-Ta,3,Hf3TaFe8
0.0,Hf-Te,2,Hf3Te2
1.7083,Hf-O-Pb-Te,4,Hf3TePb4O13
0.0,Hf-Th,2,Hf3Th
2.6732,Hf-O-Pb-Ti,4,Hf3Ti2(PbO3)5
0.0,Ga-Hf-Ti,3,Hf3Ti2Ga3
0.0,Hf-Ti-V,3,Hf3TiV8
0.0,Hf-Tl,2,Hf3Tl
0.5025000000000004,Cu-Hf-Se-Tl,4,Hf3Tl2(CuSe4)2
0.0,C-Hf-Zn,3,Hf3Zn3C
0.0,Hf-N-Zn,3,Hf3Zn3N
0.0,F-Hf-Zn,3,Hf3ZnF6
0.0,Hf-N-Zn,3,Hf3ZnN
0.0,C-Hf-Ru,3,Hf4(Ru4C)3
0.0,Ag-Hf-Pd,3,Hf4AgPd
0.0,Al-Hf,2,Hf4Al3
0.0,Al-Hf-Si,3,Hf4AlSi
0.0,C-Hf-N,3,Hf4C3N
0.0,C-Hf-N,3,Hf4CN3
0.0,Co-Hf,2,Hf4Co
0.0,Co-Ge-Hf,3,Hf4Co4Ge7
0.0,Co-Hf-Si,3,Hf4Co4Si7
0.0,Co-Ge-Hf,3,Hf4Co7Ge6
0.0,Co-Hf-P,3,Hf4CoP
0.0,Cr-Hf,2,Hf4Cr
0.0,Cu-Hf-P,3,Hf4CuP
0.0,Cu-Hf-Si,3,Hf4CuSi3
0.0,Cu-Hf-Si,3,Hf4CuSi4
0.0,Fe-Hf,2,Hf4Fe
0.0,Fe-Ge-Hf,3,Hf4Fe4Ge7
0.0,Fe-Hf-P,3,Hf4FeP
0.0,Fe-Hf-S,3,Hf4FeS8
0.0,Ge-Hf-Sb,3,Hf4GeSb7
0.0,Hf-Mo,2,Hf4Mo
0.0,Hf-N,2,Hf4N3
0.0,As-Hf-Ni,3,Hf4Ni3As8
0.0,Hf-Ni-P,3,Hf4NiP
0.0,Hf-Ni-Rh,3,Hf4NiRh
0.0,Hf-Ni-Si,3,Hf4Si7Ni4
0.0,C-Hf-U,3,Hf4UC5
0.0,Hf-V,2,Hf4V
0.0,Hf-W,2,Hf4W
0.0,Ga-Hf-Zn,3,Hf4ZnGa11
0.0,Hf-In-Rh,3,Hf5(In2Rh)2
0.0,Al-Hf,2,Hf5Al3
0.0,Al-C-Hf,3,Hf5Al3C
0.0,Al-Hf-N,3,Hf5Al3N
0.0,Co-Hf-Sn,3,Hf5CoSn3
0.0,Cu-Hf-Pb,3,Hf5CuPb3
0.0,Cu-Hf-Sb,3,Hf5CuSb3
0.0,Cu-Hf-Sn,3,Hf5CuSn3
0.0,Fe-Hf-Sb,3,Hf5FeSb2
0.0,Ga-Hf,2,Hf5Ga3
0.0,Ga-Hf-Sn,3,Hf5GaSn3
0.0,Ge-Hf,2,Hf5Ge3
0.0,Hf-Ir,2,Hf5Ir3
0.0,Hf-Mn-Sb,3,Hf5MnSb2
0.0,Hf-N-O,3,Hf5N5O2
0.0,Hf-Ni-Sb,3,Hf5NiSb3
0.0,Hf-Ni-Sn,3,Hf5NiSn3
0.0,Hf-P-Pd,3,Hf5P7Pd9
0.0,Hf-Pb,2,Hf5Pb
0.0,Hf-Re,2,Hf5Re24
0.0,Hf-Sc,2,Hf5Sc
0.0,Ge-Hf-Sc,3,Hf5Sc5Ge6
0.0,Hf-Sc-Si,3,Hf5Sc5Si6
0.0,Hf-Sc-Si,3,Hf5ScSi4
0.0,Hf-Si,2,Hf5Si3
0.0,Hf-N-Si,3,Hf5Si3N
0.0,Hf-Sn,2,Hf5Sn3
0.0,Hf-Sn,2,Hf5Sn4
0.0,Hf-Te,2,Hf5Te4
0.0,Hf-Sb-Zn,3,Hf5ZnSb3
0.0,Ga-Hf-Zr,3,Hf5Zr5Ga6
0.0,Al-Co-Hf,3,Hf6Al16Co7
0.0,Al-Hf-Ir,3,Hf6Al16Ir7
0.0,Al-Hf-Os,3,Hf6Al16Os7
0.0,Al-Hf-Pd,3,Hf6Al16Pd7
0.0,Al-Hf-Pt,3,Hf6Al16Pt7
0.0,Al-Hf-Rh,3,Hf6Al16Rh7
0.0,Al-Co-Hf,3,Hf6Al2Co
0.0,Al-Fe-Hf,3,Hf6Al2Fe
0.0,Al-Hf-Ni,3,Hf6Al2Ni
0.0,Al-Hf-Pt,3,Hf6Al2Pt
0.0,Be-Co-Hf,3,Hf6Be15Co8
0.0,Be-Cu-Hf,3,Hf6Be15Cu8
0.0,Be-Hf-Ni,3,Hf6Be15Ni8
0.0,Be-Hf-Pd,3,Hf6Be15Pd8
0.0,Co-Ge-Hf,3,Hf6Co16Ge7
0.0,Co-Hf-Si,3,Hf6Co16Si7
0.0,Co-Hf,2,Hf6Co23
0.0,Bi-Co-Hf,3,Hf6CoBi2
0.0,Co-Hf-Sb,3,Hf6CoSb2
0.0,Fe-Hf-Si,3,Hf6Fe16Si7
0.0,Fe-Hf-Sb,3,Hf6FeSb2
0.0,Co-Ga-Hf,3,Hf6Ga16Co7
0.0,Ga-Hf-Ni,3,Hf6Ga16Ni7
0.0,Ga-Hf-Pd,3,Hf6Ga16Pd7
0.0,Ga-Hf-Rh,3,Hf6Ga16Rh7
0.0,Co-Ga-Hf,3,Hf6Ga2Co
0.0,Fe-Ga-Hf,3,Hf6Ga2Fe
0.0,Ge-Hf-Ni,3,Hf6Ni16Ge7
0.0,Bi-Hf-Ni,3,Hf6NiBi2
0.0,Hf-Ni-Sb,3,Hf6NiSb2
0.0,Hf-O-Pb,3,Hf6PbO18
0.0,Hf-Ni-Si,3,Hf6Si7Ni16
0.0,Cu-Hf-Zn,3,Hf6Zn16Cu7
0.0,Hf-N-Zn,3,Hf6Zn6N
0.0,As-Hf,2,Hf7As4
0.0,Hf-Ni,2,Hf7Ni10
0.0,Hf-P,2,Hf7P4
0.0,Hf-Mg-N-O,4,Hf8Mg(N2O)4
0.1731999999999995,Hf-Mg-N-O,4,Hf8Mg(N2O)4
0.0747999999999997,Hf-Mg-N-O,4,Hf8Mg(N2O)4
0.2389000000000001,Hf-Mg-N-O,4,Hf8Mg(N2O)4
0.0,Hf-Ni,2,Hf8Ni21
0.0,Hf-N-Ni,3,Hf8Ni4N
0.0,Hf-Ni,2,Hf9Ni11
0.0,Ag-Hf,2,HfAg
1.1134999999999995,Ag-Hf-S,3,HfAg2S3
0.0,Ag-B-Hf,3,HfAgB
0.0,Al-Hf,2,HfAl
0.0,Al-Hf,2,HfAl2
4.9993,Al-Hf-O,3,HfAl2O5
0.0,Al-Hf-Zn,3,HfAl2Zn
0.0,Al-Hf,2,HfAl3
0.0,Al-Hf-Ni,3,HfAl5Ni2
0.0,Al-Au-Hf,3,HfAlAu2
0.0,Al-Co-Hf,3,HfAlCo
0.0,Al-Co-Hf,3,HfAlCo2
0.0,Al-Cr-Hf,3,HfAlCr
0.0,Al-Cu-Hf,3,HfAlCu
0.0,Al-Cu-Hf,3,HfAlCu2
0.0,Al-Fe-Hf,3,HfAlFe
0.0,Al-Fe-Hf,3,HfAlFe2
0.0,Al-Hf-Ir,3,HfAlIr
0.0,Al-Hf-Ir,3,HfAlIr2
0.0,Al-Hf-Mo,3,HfAlMo
0.0,Al-Hf-Ni,3,HfAlNi
0.0,Al-Hf-Ni,3,HfAlNi2
0.0,Al-Hf-Pd,3,HfAlPd
0.0,Al-Hf-Pd,3,HfAlPd2
0.0,Al-Hf-Pt,3,HfAlPt
0.0,Al-Hf-Pt,3,HfAlPt2
0.0,Al-Hf-Rh,3,HfAlRh
0.0,Al-Hf-Rh,3,HfAlRh2
0.0,Al-Hf-Ru,3,HfAlRu2
0.0,Al-Hf-W,3,HfAlW4
0.0,Al-Hf-Zn,3,HfAlZn
0.0,As-Hf,2,HfAs
0.0,As-Hf,2,HfAs2
0.0,As-Hf-Os,3,HfAsOs
0.0,As-Hf-Pd,3,HfAsPd
0.0,As-Hf-Rh,3,HfAsRh
0.0,As-Hf-Ru,3,HfAsRu
0.0,Au-Hf,2,HfAu
0.0,Au-Hf,2,HfAu2
0.0,Au-Hf,2,HfAu3
0.0,Au-Hf,2,HfAu9
0.0,B-Hf,2,HfB
0.0,B-Hf,2,HfB12
0.0,B-Hf,2,HfB2
4.4146,B-Hf-O,3,HfB2O5
0.0,B-Hf-Ir,3,HfB4Ir3
0.0,B-Hf,2,HfB6
0.0,B-C-Hf,3,HfBC
0.0,B-Hf-O,3,HfBO3
0.0,B-Hf-Rh,3,HfBRh3
0.0,Be-Hf,2,HfBe
0.0,Be-Hf,2,HfBe13
0.0,Be-Hf,2,HfBe2
0.0,Be-Bi-Hf,3,HfBe2Bi
0.0,Be-Hf,2,HfBe5
0.0,Be-Hf-Ir,3,HfBeIr2
1.0495,Be-Hf-O,3,HfBeO3
0.0,Be-Hf-Rh,3,HfBeRh2
0.0,Be-Hf-Si,3,HfBeSi
0.0,Bi-Hf,2,HfBi
0.0,Bi-Hf,2,HfBi3
1.073,Bi-Hf-O,3,HfBiO4
0.0,Bi-Hf-Rh,3,HfBiRh
0.0,Br-Hf,2,HfBr3
1.9205,Br-Hf-N,3,HfBrN
2.1298000000000004,Br-Hf-N,3,HfBrN
0.0,C-Hf,2,HfC
0.2957000000000001,C-Hf,2,HfC
0.0,Cd-Hf,2,HfCd
0.0,Cd-Cu-Hf,3,HfCdCu2
0.0,Cd-Hf-O,3,HfCdO3
2.3244,Cd-Hf-O,3,HfCdO3
0.0,Cd-Hf-Rh,3,HfCdRh2
4.1668,Cl-Hf,2,HfCl4
0.0,Co-Hf,2,HfCo
0.0,Co-Hf,2,HfCo2
0.0,Co-Hf-Sn,3,HfCo2Sn
0.0,Co-Hf,2,HfCo3
0.0,B-Co-Hf,3,HfCo3B2
0.0,Co-Hf,2,HfCo7
0.0,As-Co-Hf,3,HfCoAs
0.0,Co-Ge-Hf,3,HfCoGe
0.0,Co-Hf-N,3,HfCoN2
2.4865,Co-Hf-O,3,HfCoO3
0.0,Co-Hf-P,3,HfCoP
0.0,Co-Hf-Sb,3,HfCoSb
0.0,Co-Hf-Si,3,HfCoSi
0.0,Co-Hf-Sn,3,HfCoSn
0.0,Cr-Hf,2,HfCr2
0.0,Ag-Cr-Hf-S,4,HfCrAgS4
0.3371999999999997,Ag-Cr-Hf-S,4,HfCrAgS4
0.7582999999999998,Ag-Cr-Hf-S,4,HfCrAgS4
0.9164,Ag-Cr-Hf-S,4,HfCrAgS4
0.8528999999999995,Ag-Cr-Hf-S,4,HfCrAgS4
0.0,Cr-Cu-Hf-S,4,HfCrCuS4
0.2004999999999999,Cr-Cu-Hf-S,4,HfCrCuS4
0.2751000000000001,Cr-Cu-Hf-S,4,HfCrCuS4
0.2854000000000001,Cr-Cu-Hf-S,4,HfCrCuS4
0.4232000000000004,Cr-Cu-Hf-S,4,HfCrCuS4
0.3208999999999999,Cr-Cu-Hf-S,4,HfCrCuS4
0.0792999999999999,Cr-Cu-Hf-Se,4,HfCrCuSe4
1.5871000000000004,Cr-Hf-O,3,HfCrO3
1.1371000000000002,Cr-Hf-O,3,HfCrO4
0.5763000000000003,Cr-Hf-O,3,HfCrO4
0.0,Cr-Hf-P,3,HfCrP
0.0,Cr-Hf-S,3,HfCrS4
0.0,Cr-Hf-Si,3,HfCrSi
0.1699999999999999,Cu-F-Hf-O,4,HfCu(O2F3)2
0.0517000000000003,Cu-Hf-Te,3,HfCu2Te3
0.0,Cu-Hf,2,HfCu3
0.0,Cu-Ge-Hf,3,HfCuGe
0.0,Cu-Ge-Hf,3,HfCuGe2
0.0,As-Cu-Ge-Hf,4,HfCuGeAs
0.0,Cu-Hf-Hg,3,HfCuHg2
0.0,Cu-Hf-P,3,HfCuP
0.0,Cu-Hf-Si,3,HfCuSi
0.0,Cu-Hf-Si,3,HfCuSi2
0.0,As-Cu-Hf-Si,4,HfCuSiAs
0.0,Cu-Hf-Sn,3,HfCuSn
5.4058,F-Hf,2,HfF4
0.0,Fe-Hf,2,HfFe2
0.020999999999999,Fe-Hf-Sn,3,HfFe2Sn
0.0,As-Fe-Hf,3,HfFeAs
0.4575,Cl-Fe-Hf,3,HfFeCl6
0.0,F-Fe-Hf,3,HfFeF6
0.0,Fe-Ge-Hf,3,HfFeGe
0.0620000000000002,Fe-Hf-N,3,HfFeN2
1.8282000000000005,Fe-Hf-O,3,HfFeO3
2.9099000000000004,Fe-Hf-O,3,HfFeO3
0.0,Fe-Hf-P,3,HfFeP
0.0,Fe-Hf-Sb,3,HfFeSb
0.0,Fe-Hf-Si,3,HfFeSi
0.0,Fe-Hf-Si,3,HfFeSi2
0.0,Ga-Hf,2,HfGa
0.0,Ga-Hf,2,HfGa2
0.0,Ag-Ga-Hf,3,HfGa2Ag
0.0,Ga-Hf,2,HfGa3
0.0,Co-Ga-Hf,3,HfGa4Co
0.0,Co-Ga-Hf,3,HfGa5Co
0.0,Ga-Hf-Ni,3,HfGa5Ni
0.0,Au-Ga-Hf,3,HfGaAu
0.0,Co-Ga-Hf,3,HfGaCo
0.0,Co-Ga-Hf,3,HfGaCo2
0.0,Cu-Ga-Hf,3,HfGaCu
0.0,Ga-Hf-Ir,3,HfGaIr2
0.0,Ga-Hf-Ni,3,HfGaNi
0.0,Ga-Hf-Ni,3,HfGaNi2
0.0,Ga-Hf-Pd,3,HfGaPd
0.0,Ga-Hf-Pt,3,HfGaPt
0.0,Ga-Hf-Rh,3,HfGaRh
0.0,Ga-Hf-Rh,3,HfGaRh2
0.0,Ga-Hf-Ru,3,HfGaRu2
0.0,Ge-Hf,2,HfGe2
0.0,B-Ge-Hf,3,HfGeB2
0.0,Ge-Hf-Ir,3,HfGeIr
0.0,Ge-Hf-Mo,3,HfGeMo
0.0,Ge-Hf-O,3,HfGeO2
4.161099999999999,Ge-Hf-O,3,HfGeO4
0.0,Ge-Hf-Os,3,HfGeOs
0.0,Ge-Hf-Pd,3,HfGePd
0.0,Ge-Hf-Pt,3,HfGePt
0.0,Ge-Hf-Rh,3,HfGeRh
0.0,Ge-Hf-Ru,3,HfGeRu
0.0,Ge-Hf-Ru,3,HfGeRu2
0.0,Ge-Hf-S,3,HfGeS
0.0,Ge-Hf-Se,3,HfGeSe
0.0,Ge-Hf-Te,3,HfGeTe
0.3307000000000002,Ge-Hf-Te,3,HfGeTe4
0.0,H-Hf,2,HfH2
0.0,H-Hf,2,HfH3
4.6357,H-Hf-O-S,4,HfH8(SO6)2
0.0,Hf-Hg-O,3,HfHgO3
0.0,Hf-I,2,HfI3
0.9778000000000002,Hf-I-N,3,HfIN
0.0,Au-Hf-In,3,HfInAu2
0.0,Co-Hf-In,3,HfInCo2
0.0,Cu-Hf-In,3,HfInCu2
0.0,Hf-In-Ni,3,HfInNi2
0.0,Hf-In-Pd,3,HfInPd2
0.0,Hf-In-Pt,3,HfInPt2
0.0,Hf-In-Rh,3,HfInRh2
0.0,Hf-Ir,2,HfIr
0.0,Hf-Ir,2,HfIr3
0.0,Hf-Mg,2,HfMg
0.0,Al-Hf-Mg,3,HfMg14Al
0.0,Al-Hf-Mg-O,4,HfMg14AlO16
0.0,B-Hf-Mg,3,HfMg14B
0.0940000000000003,B-Hf-Mg-O,4,HfMg14BO15
0.0,B-Hf-Mg-O,4,HfMg14BO15
0.0,B-Hf-Mg-O,4,HfMg14BO16
0.0,Bi-Hf-Mg,3,HfMg14Bi
0.0,Bi-Hf-Mg-O,4,HfMg14BiO16
0.0,C-Hf-Mg,3,HfMg14C
0.0,C-Hf-Mg-O,4,HfMg14CO16
0.1897000000000002,C-Hf-Mg-O,4,HfMg14CO16
0.0,Cd-Hf-Mg,3,HfMg14Cd
0.0,Cd-Hf-Mg-O,4,HfMg14CdO16
0.0,Co-Hf-Mg,3,HfMg14Co
0.0,Co-Hf-Mg-O,4,HfMg14CoO16
0.0,Cr-Hf-Mg,3,HfMg14Cr
0.0,Cr-Hf-Mg-O,4,HfMg14CrO16
0.0,Cu-Hf-Mg,3,HfMg14Cu
0.0,Cu-Hf-Mg-O,4,HfMg14CuO16
0.0,Fe-Hf-Mg,3,HfMg14Fe
0.0,Fe-Hf-Mg-O,4,HfMg14FeO16
0.0,Ga-Hf-Mg,3,HfMg14Ga
0.0,Ga-Hf-Mg-O,4,HfMg14GaO16
0.0,Hf-Mg-Mn,3,HfMg14Mn
0.0,Hf-Mg-Mn-O,4,HfMg14MnO16
0.0,Hf-Mg-Mo,3,HfMg14Mo
0.0,Hf-Mg-Nb,3,HfMg14Nb
0.0,Hf-Mg-Nb-O,4,HfMg14NbO16
0.0,Hf-Mg-Ni,3,HfMg14Ni
0.0,Hf-Mg-Ni-O,4,HfMg14NiO16
0.0,Hf-Mg-Sb,3,HfMg14Sb
0.0,Hf-Mg-O-Sb,4,HfMg14SbO16
0.0,Hf-Mg-Si,3,HfMg14Si
0.0,Hf-Mg-O-Si,4,HfMg14SiO16
0.0,Hf-Mg-Sn,3,HfMg14Sn
0.0,Hf-Mg-O-Sn,4,HfMg14SnO16
0.0,Hf-Mg-Ti,3,HfMg14Ti
0.0,Hf-Mg-O-Ti,4,HfMg14TiO16
0.0,Hf-Mg-V,3,HfMg14V
0.0,Hf-Mg-O-V,4,HfMg14VO16
0.0,Hf-Mg-W,3,HfMg14W
0.0,Hf-Mg-O-W,4,HfMg14WO16
0.0,Hf-Mg-Zn,3,HfMg14Zn
0.0,Hf-Mg-O-Zn,4,HfMg14ZnO16
0.0,Hf-Mg-Zr,3,HfMg14Zr
0.0,Hf-Mg,2,HfMg15
0.0,Hf-Mg,2,HfMg3
0.0,Hf-Mg-O,3,HfMg3O4
0.0,Al-Hf-Mg,3,HfMg6Al
0.0,Al-Hf-Mg-O,4,HfMg6AlO8
0.0,B-Hf-Mg,3,HfMg6B
0.0,B-Hf-Mg-O,4,HfMg6BO7
0.0,B-Hf-Mg-O,4,HfMg6BO8
0.0,Bi-Hf-Mg,3,HfMg6Bi
0.0,Bi-Hf-Mg-O,4,HfMg6BiO8
0.0,C-Hf-Mg,3,HfMg6C
0.0,C-Hf-Mg-O,4,HfMg6CO8
0.0,Cd-Hf-Mg,3,HfMg6Cd
0.0,Cd-Hf-Mg-O,4,HfMg6CdO8
0.0,Co-Hf-Mg,3,HfMg6Co
0.0,Co-Hf-Mg-O,4,HfMg6CoO8
0.0,Cr-Hf-Mg,3,HfMg6Cr
0.0,Cr-Hf-Mg-O,4,HfMg6CrO8
0.0,Cu-Hf-Mg,3,HfMg6Cu
0.0,Cu-Hf-Mg-O,4,HfMg6CuO8
0.0,Fe-Hf-Mg,3,HfMg6Fe
0.0,Fe-Hf-Mg-O,4,HfMg6FeO8
0.0,Ga-Hf-Mg,3,HfMg6Ga
0.0,Ga-Hf-Mg-O,4,HfMg6GaO8
0.0,Hf-Mg-Mn,3,HfMg6Mn
0.0,Hf-Mg-Mn-O,4,HfMg6MnO8
0.0,Hf-Mg-Mo,3,HfMg6Mo
0.0,Hf-Mg-Nb,3,HfMg6Nb
0.0,Hf-Mg-Nb-O,4,HfMg6NbO8
0.0,Hf-Mg-Ni,3,HfMg6Ni
0.0,Hf-Mg-Ni-O,4,HfMg6NiO8
0.0,Hf-Mg-Sb,3,HfMg6Sb
0.0,Hf-Mg-O-Sb,4,HfMg6SbO8
0.0,Hf-Mg-Si,3,HfMg6Si
0.0,Hf-Mg-O-Si,4,HfMg6SiO8
0.0,Hf-Mg-Sn,3,HfMg6Sn
0.0,Hf-Mg-O-Sn,4,HfMg6SnO8
0.0,Hf-Mg-Ti,3,HfMg6Ti
0.0,Hf-Mg-O-Ti,4,HfMg6TiO8
0.0,Hf-Mg-V,3,HfMg6V
0.0,Hf-Mg-O-V,4,HfMg6VO8
0.0,Hf-Mg-W,3,HfMg6W
0.0,Hf-Mg-O-W,4,HfMg6WO8
0.0,Hf-Mg-Zn,3,HfMg6Zn
0.0,Hf-Mg-O-Zn,4,HfMg6ZnO8
0.0,Hf-Mg-Zr,3,HfMg6Zr
0.0,Hf-Mg,2,HfMg7
0.0,Au-Hf-Mg,3,HfMgAu2
0.0,Hf-Ir-Mg,3,HfMgIr2
1.6720000000000006,Hf-Mg-N,3,HfMgN2
0.7745000000000002,Hf-Mg-O,3,HfMgO3
0.0,Hf-Mg-Pd,3,HfMgPd2
0.0,Hf-Mg-Pt,3,HfMgPt2
0.0,Hf-Mg-Rh,3,HfMgRh2
0.0,Hf-Mn,2,HfMn
0.0,Hf-Mn,2,HfMn2
0.0,Al-Hf-Mn,3,HfMnAl
4.9479,F-Hf-Mn,3,HfMnF6
0.0,Ge-Hf-Mn,3,HfMnGe
0.0,Hf-Ir-Mn,3,HfMnIr2
0.0,Hf-Mn-N,3,HfMnN2
2.6129,Hf-Mn-O,3,HfMnO3
0.0,Hf-Mn-P,3,HfMnP
0.0,Hf-Mn-Rh,3,HfMnRh2
0.0,Hf-Mn-Si,3,HfMnSi
0.0,Hf-Mn-Tl,3,HfMnTl
0.0,Hf-Mo,2,HfMo
0.0,Hf-Mo,2,HfMo2
0.0,Hf-Mo,2,HfMo4
0.0,C-Hf-Mo,3,HfMoC2
0.0,Hf-Mo-P,3,HfMoP
0.0,Hf-Mo-Se,3,HfMoSe
0.0,Hf-N,2,HfN
0.0,Hf-N,2,HfN2
0.5762,Hf-N,2,HfN2
1.1880999999999995,Hf-N,2,HfN2
2.2055,Cl-Hf-N,3,HfNCl
2.8242000000000003,F-Hf-N,3,HfNF4
2.5976,F-Hf-N,3,HfNF5
0.0,Hf-Nb,2,HfNb
0.0,C-Hf-Nb-V,4,HfNb2VC4
0.0,C-Hf-N-Nb,4,HfNb4CN4
0.0,B-Hf-Nb,3,HfNbB2
0.0,B-Hf-Nb,3,HfNbB4
0.0,C-Hf-Nb,3,HfNbC2
0.0,C-Hf-N-Nb,4,HfNbCN
0.0,Hf-N-Nb,3,HfNbN2
0.0,Hf-Nb-O,3,HfNbO4
0.0,Hf-Nb-P,3,HfNbP
0.0,Hf-Nb-Ru,3,HfNbRu2
0.0,Hf-Nb-Si,3,HfNbSi
0.0,Hf-Nb-Tc,3,HfNbTc2
0.0,Hf-Ni,2,HfNi
0.7710000000000001,F-Hf-Ni-O,4,HfNi(OF)6
0.0,Hf-Ni,2,HfNi2
0.0,Hf-Ni-Sb,3,HfNi2Sb
0.0,Hf-Ni-Sn,3,HfNi2Sn
0.0,Hf-Ni,2,HfNi3
0.0,Hf-Ni,2,HfNi5
0.0,As-Hf-Ni,3,HfNiAs
0.0,Ge-Hf-Ni,3,HfNiGe
2.7983,Hf-Ni-O,3,HfNiO3
0.0,Hf-Ni-P,3,HfNiP
0.0,Hf-Ni-Pb,3,HfNiPb
0.0,Hf-Ni-Sb,3,HfNiSb
0.0,Hf-Ni-Sn,3,HfNiSn
0.3868999999999998,Hf-Ni-Sn,3,HfNiSn
0.0,Hf-Np,2,HfNp3
0.0,Hf-Np-O,3,HfNpO3
4.667800000000001,Hf-O,2,HfO2
3.7545,Hf-O,2,HfO2
4.2272,Hf-O,2,HfO2
4.0165,Hf-O,2,HfO2
3.804300000000001,Hf-O,2,HfO2
4.4148,Hf-O,2,HfO2
3.3929,Hf-O,2,HfO2
4.016500000000001,Hf-O,2,HfO2
4.1383,Hf-O,2,HfO2
3.9025,Hf-O,2,HfO2
0.6691,F-Hf-O,3,HfO3F4
0.0,Hf-Os,2,HfOs
0.0,Hf-Os,2,HfOs2
0.0,Hf-Os,2,HfOs3
0.0,Hf-P,2,HfP
0.0,Hf-P,2,HfP2
5.2369,H-Hf-O-P,4,HfP2(H3O5)2
5.3149,Hf-O-P,3,HfP2O7
0.0,Hf-P,2,HfP3
0.0,Hf-Os-P,3,HfPOs
0.0,Hf-P-Ru,3,HfPRu
0.0,Hf-Pa-Tc,3,HfPaTc2
0.9043,Hf-N-Pb,3,HfPbN2
2.4148999999999994,Hf-O-Pb,3,HfPbO3
2.7562000000000006,Hf-O-Pb,3,HfPbO3
1.4517000000000002,Hf-Pb-S,3,HfPbS3
0.0,Hf-Pd,2,HfPd
0.0,Hf-Pd,2,HfPd2
0.0,Hf-Pd,2,HfPd3
0.0,Hf-Pd,2,HfPd5
0.0,Hf-Pt,2,HfPt
0.0,Hf-Pt,2,HfPt3
0.0,Hf-Pt,2,HfPt4
0.0,Hf-Pb-Pt,3,HfPtPb
0.0,Hf-Re,2,HfRe2
0.0,Hf-Re-Si,3,HfReSi
0.0,Hf-Rh,2,HfRh
0.0,Hf-Rh,2,HfRh3
0.0,Hf-Ru,2,HfRu
0.0,Hf-Ru,2,HfRu3
0.0,Hf-S,2,HfS
1.2237,Hf-S,2,HfS2
1.1326,Hf-S,2,HfS3
1.0651000000000002,Hf-O-S,3,HfSO
2.8690999999999995,Hf-O-S,3,HfSO
2.8728,Hf-O-S,3,HfSO6
0.0,Hf-O-S,3,HfSO7
0.0,Hf-Sb,2,HfSb
0.0,Hf-Sb,2,HfSb2
0.0,Hf-Sb,2,HfSb3
0.1391000000000009,Hf-Mo-Sb,3,HfSb4Mo
0.0,Hf-Pd-Sb,3,HfSbPd
0.0,Hf-Rh-Sb,3,HfSbRh
0.0,Hf-Ru-Sb,3,HfSbRu
0.0,Hf-Sc,2,HfSc
0.0,Hf-Sc-Si,3,HfSc3Si8
0.0,Co-Hf-Sc,3,HfScCo2
0.0,Ge-Hf-Sc,3,HfScGe4
0.0,Hf-Ir-Sc,3,HfScIr2
0.0,Hf-Os-Sc,3,HfScOs2
0.0,Hf-Rh-Sc,3,HfScRh2
0.0,Hf-Ru-Sc,3,HfScRu2
0.0,Hf-Sc-Si,3,HfScSi2
0.0,Hf-Sc-Tc,3,HfScTc2
0.5342000000000002,Hf-Se,2,HfSe2
0.3170999999999999,Hf-Se,2,HfSe3
0.7587000000000002,Hf-S-Se,3,HfSeS
0.0,Hf-Si,2,HfSi
0.0,Hf-Si,2,HfSi2
0.0,Br-Hf-Si,3,HfSi2Br
0.0,Hf-Mo-Si,3,HfSiMo
0.0,Hf-Ni-Si,3,HfSiNi
5.069999999999999,Hf-O-Si,3,HfSiO4
0.0,Hf-Os-Si,3,HfSiOs
0.0,Hf-Pd-Si,3,HfSiPd
0.0,Hf-Pt-Si,3,HfSiPt
0.0,Hf-Rh-Si,3,HfSiRh
0.0,Hf-Ru-Si,3,HfSiRu
0.1694999999999993,Hf-Ru-Si,3,HfSiRu2
0.0,Hf-S-Si,3,HfSiS
0.0,Hf-Se-Si,3,HfSiSe
0.0,Hf-Si-Te,3,HfSiTe
0.0,Hf-Si-W,3,HfSiW
0.0,Hf-Si-W,3,HfSiW4
0.0,Hf-Sn,2,HfSn
0.0,Hf-Sn,2,HfSn2
0.0,Hf-Ir-Sn,3,HfSnIr
2.3676000000000004,Hf-O-Sn,3,HfSnO3
0.0338000000000002,Hf-Pd-Sn,3,HfSnPd
0.0,Hf-Pt-Sn,3,HfSnPt
0.0,Hf-Rh-Sn,3,HfSnRh
0.0,Hf-Rh-Sn,3,HfSnRh2
0.0,Hf-Ru-Sn,3,HfSnRu2
1.1981000000000002,Hf-S-Sn,3,HfSnS3
0.0,Hf-Ta,2,HfTa
0.0,Hf-N-Ta,3,HfTa2N3
0.0,C-Hf-Ta-V,4,HfTa2VC4
0.0,C-Hf-Ta,3,HfTa3C4
0.2497999999999995,B-Hf-Ta,3,HfTa5B4
0.0,B-Hf-Ta,3,HfTaB2
0.0,Ga-Si,2,Ga3Si
0.0,Ga-Ni-Si,3,Ga3SiNi4
0.0,Ga-Sn,2,Ga3Sn
0.5309999999999997,Ga-N-Sn,3,Ga3Sn3N5
0.0,Ga-Tc,2,Ga3Tc
0.0,Ga-Te,2,Ga3Te
0.0234,As-Ga-Te,3,Ga3Te3As