eg,chemsys,nelements,formula
0.0,Au-Cd,2,Cd3Au8
0.0,B-Cd,2,Cd3B
0.0,Bi-Cd,2,Cd3Bi
0.2046000000000001,C-Cd,2,Cd3C
0.0,Cd-Fe,2,Cd3Fe
0.0,Cd-Fe-S,3,Cd3FeS4
0.0,Cd-Fe-Se,3,Cd3FeSe4
0.0,Cd-Ga,2,Cd3Ga
0.8683000000000001,Cd-Ga-N,3,Cd3Ga3N5
0.0,Cd-Ge,2,Cd3Ge
0.0,Cd-Ge-O,3,Cd3GeO6
0.0,Cd-Hg,2,Cd3Hg
0.0,Cd-In,2,Cd3In
0.0,Au-Cd-In,3,Cd3InAu12
0.0,Cd-Ir,2,Cd3Ir
0.0,Cd-N-O,3,Cd3NO8
0.0,Cd-Ni,2,Cd3Ni
0.0,Cd-Os,2,Cd3Os
0.0,Cd-P,2,Cd3P
0.0,Cd-P,2,Cd3P2
1.8279,Cd-Cl-P,3,Cd3PCl3
1.2987000000000002,Cd-I-P,3,Cd3PI3
0.0,Cd-Pb,2,Cd3Pb
0.0,Cd-Pd,2,Cd3Pd
0.0,Cd-Pt,2,Cd3Pt
0.0,Cd-N-Sb,3,Cd3SbN
0.0,Cd-Se,2,Cd3Se
2.87,Cd-O-Se,3,Cd3Se3O10
1.3925,Cd-O-Pb-Si,4,Cd3Si2Pb3O10
0.9679,Cd-O-Si,3,Cd3SiO5
0.0,Cd-Te,2,Cd3Te
0.5061,Cd-O-Te,3,Cd3TeO6
2.4314,B-Cd-O,3,Cd4B6O13
2.2263,B-Bi-Cd-O,4,Cd4BiB3O10
0.2391000000000003,Cd-Co-S,3,Cd4CoS5
0.0,As-Cd-In-Te,4,Cd4InTe4As
2.4773,Cd-Mo-O-W,4,Cd4Mo3WO16
2.7918000000000003,Cd-Mo-O-W,4,Cd4MoW3O16
1.8997,Cd-F-O,3,Cd4OF6
2.9902,Cd-N-P-S,4,Cd4P6SN12
0.0,Cd-N-Ru,3,Cd4RuN4
1.8553,Cd-F-S,3,Cd4SF6
0.8527,Cd-F-S,3,Cd4SF6
0.0708000000000002,Cd-N-Sn,3,Cd4SnN4
0.6374,Cd-Se-Te,3,Cd4Te3Se
0.4506999999999999,Cd-Se-Te,3,Cd4Te3Se
1.2262999999999995,Cd-Pb-Te,3,Cd4Te5Pb
0.3725,Cd-Se-Te,3,Cd4TeSe3
0.0849999999999999,Cd-Ge-N,3,Cd5(GeN3)2
0.0,Cd-N-O,3,Cd5(NO8)2
1.4495,Cd-Cl-S,3,Cd5(S2Cl)2
0.2911999999999999,Cd-N-Si,3,Cd5(SiN3)2
0.0,Au-Cd,2,Cd5Au3
0.0,Cd-H-N-O,4,Cd5H2(NO7)2
0.3696999999999999,Cd-S-Te,3,Cd5Te4S
0.5646000000000002,Cd-S-Te,3,Cd5TeS4
0.9162,Cd-Co-O,3,Cd6(CoO3)5
0.0,Cd-Co-O,3,Cd6(CoO3)5
0.0605000000000002,Cd-Ge-N,3,Cd7GeN6
0.0,Cd-N-Si,3,Cd7SiN6
0.0,Ag-Cd,2,CdAg
0.0,Ag-Au-Cd,3,CdAg2Au
0.5785,Ag-Cd-Ge-S,4,CdAg2GeS4
0.6431999999999998,Ag-Cd-S-Sn,4,CdAg2Sn3S8
0.0,Ag-Cd-S-Sn,4,CdAg2SnS4
0.0,Ag-Cd-Se-Sn,4,CdAg2SnSe4
0.0,Ag-Cd,2,CdAg3
0.0,Ag-Au-Cd,3,CdAgAu2
0.0,Ag-Cd-O,3,CdAgO2
0.0,Ag-Cd-Pd,3,CdAgPd2
0.0,Ag-Cd-Sb,3,CdAgSb
0.0918999999999998,As-Cd,2,CdAs
0.1331999999999999,As-Cd,2,CdAs2
0.0,As-Cd,2,CdAs3
0.4182000000000001,As-Cd-P,3,CdAsP
0.0,As-Cd-Pd,3,CdAsPd5
0.0,As-Cd-Pt,3,CdAsPt5
0.0,Au-Cd,2,CdAu
0.0,Au-Cd,2,CdAu3
0.8955,Au-Cd-O,3,CdAuO2
0.0,Au-Cd-O,3,CdAuO2
0.0,B-Cd,2,CdB2
0.0,B-Cd-O,3,CdBO3
0.0,Bi-Cd,2,CdBi3
0.0,Bi-Cd-O,3,CdBi3O7
1.0229,Bi-Br-Cd-O,4,CdBiBrO2
2.8427,Bi-Cd-Cl-O,4,CdBiClO2
1.2997999999999994,Bi-Cd-I-O,4,CdBiIO2
0.7669999999999999,Bi-Cd-O,3,CdBiO3
1.7294999999999998,Bi-Br-Cd-S,4,CdBiS2Br
1.9160000000000004,Bi-Cd-Cl-S,4,CdBiS2Cl
1.2705000000000002,Bi-Cd-I-Se,4,CdBiSe2I
2.9381,Br-Cd,2,CdBr2
2.8798,Br-Cd,2,CdBr2
2.8551,Br-Cd,2,CdBr2
0.0,Br-Cd-O,3,CdBrO
0.0,C-Cd,2,CdC
0.0,C-Cd-N-S,4,CdC12(S2N3)2
0.0,C-Cd-O,3,CdC2O7
0.0,Br-C-Cd-N,4,CdCBr3N
2.3076,C-Cd-N,3,CdCN2
0.0,C-Cd-N,3,CdCN2
2.9631000000000003,C-Cd-Cl-N,4,CdCNCl3
2.6226000000000003,C-Cd-O,3,CdCO3
0.0,C-Cd-O,3,CdCO3
0.3845999999999999,Br-C-Cd-N-O-S,6,CdCSBr2N3O
3.1363,Cd-Cl,2,CdCl2
3.5244,Cd-Cl,2,CdCl2
2.8987,Cd-Cl,2,CdCl2
3.5155000000000003,Cd-Cl,2,CdCl2
1.7956,Cd-Cl-O,3,CdCl2O
0.0,Cd-Cl-O,3,CdClO
2.5498000000000003,Cd-Co-O-P,4,CdCo(PO3)4
3.0064,Cd-Co-O-P,4,CdCo3(PO3)8
0.0,Cd-Co-N,3,CdCo3N
1.0398,As-Cd-Co-H-O,5,CdCoAsHO5
0.0,Cd-Co-Cu-Se,4,CdCoCu3Se4
0.4256999999999999,Cd-Co-F,3,CdCoF5
0.0,Cd-Co-O,3,CdCoO3
0.1331000000000002,Cd-Co-O,3,CdCoO3
0.0,Cd-Cu,2,CdCu2
0.0,Cd-Cu-O-S,4,CdCu2(SO4)2
0.3884999999999996,Cd-Cu-Ge-S,4,CdCu2GeS4
0.0,Cd-Cu-Ge-Se,4,CdCu2GeSe4
0.0371999999999999,Cd-Cu-Ge-Se,4,CdCu2GeSe4
0.0,Cd-Cu-Ge-Te,4,CdCu2GeTe4
0.0,Cd-Cu-O,3,CdCu2O3
0.9802999999999996,Cd-Cu-S-Si,4,CdCu2SiS4
0.3399999999999998,Cd-Cu-Se-Si,4,CdCu2SiSe4
0.2999999999999998,Cd-Cu-Si-Te,4,CdCu2SiTe4
0.2339999999999999,Cd-Cu-S-Sn,4,CdCu2Sn3S8
0.0,Cd-Cu-S-Sn,4,CdCu2SnS4
0.0,Cd-Cu-Se-Sn,4,CdCu2SnSe4
0.0,Cd-Cu-Sn-Te,4,CdCu2SnTe4
0.0,Cd-Cu,2,CdCu3
0.0,Cd-Cu-Ni-Se,4,CdCu3NiSe4
0.0,As-Cd-Cu-H-O,5,CdCuAsHO5
0.5016,Cd-Cu-F,3,CdCuF4
0.3077,Cd-Cl-Cu-H-O,5,CdCuH8(ClO)4
0.0,Cd-Cu-N,3,CdCuN
0.0359000000000002,Cd-Cu-O-P,4,CdCuP2O7
0.0,Cd-Cu-Sb,3,CdCuSb
2.7418,Cd-F,2,CdF2
2.8977000000000004,Cd-F,2,CdF2
0.5899999999999999,Cd-Fe-P-S,4,CdFe(PS3)2
2.8426,Cd-Fe-O-P-Sb,5,CdFe2Sb2(PO4)6
0.0,Cd-Fe-S-Sn,4,CdFe3(SnS4)2
1.0558999999999998,Cd-Fe-Ni-O,4,CdFe4NiO8
0.0,Cd-Fe-N,3,CdFe5N4
0.0,Cd-Cu-Fe-Se-Sn,5,CdFeCu4(SnSe4)2
0.0,Cd-Fe-O,3,CdFeO3
0.0,Cd-Fe-S,3,CdFeS2
0.0,Cd-Fe-O-P-Sn,5,CdFeSn(PO4)3
0.0,Ag-Cd-Ga-S,4,CdGa(AgS2)2
0.0,Ag-Cd-Ga-Se,4,CdGa(AgSe2)2
1.6405,Cd-Ga-S-Se,4,CdGa2(SeS)2
0.1737999999999999,As-Cd-Ga-S,4,CdGa4As4S
0.0421999999999997,As-Cd-Ga-Se,4,CdGa4As4Se
0.3917999999999999,Cd-Ga-Hg-Te,4,CdGa4HgTe8
0.0,Cd-Cu-Ga-Se,4,CdGaCu3Se4
0.0,Cd-Ga-Rh,3,CdGaRh2
1.4703000000000004,Cd-Ge-O,3,CdGe2O5
0.0,Cd-Ge,2,CdGe3
0.0085000000000001,As-Cd-Ge,3,CdGeAs2
0.0976999999999996,As-Cd-Ge-P,4,CdGeAsP
0.7351000000000001,Cd-Ge-N,3,CdGeN2
0.9590999999999998,Cd-Ge-N,3,CdGeN2
0.1022000000000007,Cd-Ge-O,3,CdGeO3
0.0741999999999998,Cd-Ge-O,3,CdGeO3
0.8481000000000001,Cd-Ge-O,3,CdGeO3
1.5369000000000002,Cd-Ge-O,3,CdGeO3
1.5058,Cd-Ge-O,3,CdGeO3
1.4099,Cd-Ge-O,3,CdGeO3
0.0,Cd-Ge-P,3,CdGeP2
0.6455000000000002,Cd-Ge-P,3,CdGeP2
0.0,Cd-H,2,CdH
2.9143,C-Cd-H-O,4,CdH10(C2O3)4
4.3338,Cd-H-N-O-S,5,CdH10S2(NO2)4
3.1241,Cd-H-N-O-S,5,CdH10S2(NO2)4
3.568,Cd-H-N-O-Se,5,CdH18Se4(N2O7)2
4.2235,C-Cd-H-O,4,CdH2(CO2)2
4.4107,C-Cd-H-N-O-S,6,CdH20C2S2(NO2)6
4.837,C-Cd-H-N-O-S,6,CdH20C4S4(NO6)2
3.4934,Cd-H-O-S,4,CdH2SO5
3.7981,Cd-H-O-Se,4,CdH2SeO4
2.5187,Cd-H-O-Se,4,CdH2SeO5
3.5746,C-Cd-Cl-H-N-O,6,CdH4CN2Cl2O
4.1228,Cd-F-H-N,4,CdH5N2F3
3.5424,Cd-Cl-H-N,4,CdH6(NCl)2
3.1149,Br-C-Cd-H-N,5,CdH6C(BrN)3
2.7712,C-Cd-H-I-N-O,6,CdH6C2I2(NO)2
3.5862,C-Cd-H-O,4,CdH6C2O7
2.3204,C-Cd-H-O-S,5,CdH6C4(S2O)2
3.5725,Cd-H-N-O,4,CdH8(NO5)2
3.5094,Cd-H-N-O,4,CdH8(NO5)2
3.4636,Cd-H-N-O,4,CdH8(NO5)2
0.283,C-Cd-Cl-H-N,5,CdH8C4(NCl)2
3.2772,C-Cd-H-N-S,5,CdH8C4(S2N3)2
0.0,Cd-Cl-H,3,CdHCl3
2.4655,Cd-Cl-H-O,4,CdHClO
1.8626,Cd-F-H-O,4,CdHOF
0.0,Cd-Hg,2,CdHg2
1.3352,Cd-Hg-O-S,4,CdHg2SO6
0.999,Cd-Hg-O-Se,4,CdHg2SeO6
0.9506,Cd-Hg-O-Se,4,CdHg2SeO6
0.0,Cd-Hg,2,CdHg3
0.1486,Cd-Hg-Te,3,CdHg3Te4
0.0996,Cd-Hg-Se,3,CdHg4Se5
0.0,Cd-Hg-Se,3,CdHg4Se5
0.0,Cd-Hg-Te,3,CdHg4Te5
2.4633,C-Cd-Hg-N-S,5,CdHgC4(SN)4
2.2448,C-Cd-Hg-N-Se,5,CdHgC4(SeN)4
0.3291,Cd-Hg-O,3,CdHgO2
0.3592999999999999,Cd-Hg-O,3,CdHgO2
0.0,Cd-Hg-Pd,3,CdHgPd2
0.0,Cd-Hg-S,3,CdHgS4
0.0,Br-Cd-Hg-S,4,CdHgSBr
0.0,Cd-Hg-Se,3,CdHgSe2
0.0,Cd-Hg-O-Se,4,CdHgSeO6
0.0,Cd-Hg-Te,3,CdHgTe2
2.3656,Cd-I,2,CdI2
2.4195,Cd-I,2,CdI2
2.3218,Cd-I,2,CdI2
2.2164,Cd-I,2,CdI2
2.3662,Cd-I,2,CdI2
2.3663,Cd-I,2,CdI2
2.3621,Cd-I,2,CdI2
2.3382,Cd-I,2,CdI2
2.4027000000000003,Cd-I,2,CdI2
2.4107,Cd-I,2,CdI2
2.3668,Cd-I,2,CdI2
0.3792999999999999,Cd-I-O,3,CdI2O7
2.198,Br-Cd-I,3,CdIBr
3.3467,Cd-Cl-I-O,4,CdIClO3
0.0,Cd-I-O,3,CdIO4
0.0,Cd-In,2,CdIn
0.0529000000000001,Cd-In-S-Se,4,CdIn2(SeS)2
0.0,Cd-In-S-Se,4,CdIn2(SeS)2
0.9137000000000004,Cd-In-O,3,CdIn2O4
0.0007000000000001,Cd-In-O,3,CdIn2O4
1.2832,Cd-In-S-Se,4,CdIn2SeS3
0.0,Au-Cd-In-Sn,4,CdIn2SnAu2
0.0,Cd-In,2,CdIn3
0.5664000000000002,As-Cd-In-Te,4,CdIn3Te4As
0.0099,As-Cd-In-S,4,CdIn4As4S
0.0,As-Cd-In-Te,4,CdIn4TeAs4
0.0,Ag-Cd-In-Te,4,CdInAgTe3
0.0,As-Cd-In-Se,4,CdInAsSe
0.823,Cd-Cu-In-Se,4,CdInCu3Se4
0.0,Cd-Ga-In-S,4,CdInGaS4
0.2643,Cd-Ga-In-S,4,CdInGaS4
0.0,Cd-In-Pd,3,CdInPd2
0.0,Cd-In-Rh,3,CdInRh2
0.0,Cd-In-S,3,CdInS2
0.0,Cd-Ir-O,3,CdIrO3
0.0,Cd-Ir-Ru,3,CdIrRu
0.0,Cd-Mo-O,3,CdMoO2
2.4682,Cd-Mo-O,3,CdMoO4
0.0,Cd-Mo-O-P,4,CdMoPO6
0.0,Cd-N,2,CdN
2.0259,Cd-Cl-N,3,CdNCl3
0.8155,Cd-Cl-N,3,CdNCl3
0.0,Cd-F-N,3,CdNF3
0.0432,Cd-N-O,3,CdNO4
0.0,Cd-N-O,3,CdNO5
0.0,Cd-Ni,2,CdNi
0.0429999999999999,Cd-Ni-O-P,4,CdNi(PO3)4
0.0,C-Cd-Ni,3,CdNi3C
0.0,Cd-N-Ni,3,CdNi3N
0.0,Cd-Ni-O,3,CdNiO2
0.0,Cd-Ni-P,3,CdNiP
0.0,Cd-O,2,CdO
0.0,Cd-O,2,CdO2
1.2535000000000005,Cd-O,2,CdO2
0.0,Cd-F-O,3,CdOF
0.0,Cd-N-O-Os,4,CdOs2(NO2)4
0.0,Cd-O-Os,3,CdOsO3
1.4897999999999998,Cd-P,2,CdP2
4.2806,Cd-H-O-P,4,CdP2(H4O5)2
4.3761,Cd-H-O-P,4,CdP2(HO)4
4.8411,Cd-H-O-P,4,CdP2H6O7
0.0,Cd-N-O-P,4,CdP3NO9
0.6551,Cd-P,2,CdP4
3.4609,Cd-H-O-P,4,CdPHO3
2.3508,Cd-N-O-P,4,CdPNO5
0.0,Cd-Os-P,3,CdPOs2
0.0,Cd-P-Pd,3,CdPPd5
0.0,Cd-P-Pt,3,CdPPt5
1.7561999999999998,Cd-P-S,3,CdPS3
1.7726999999999995,Cd-P-S,3,CdPS3
1.0486,Cd-P-Se,3,CdPSe3
2.4355,Cd-Cl-O-Pb,4,CdPb2(ClO)2
0.0,Cd-Pb,2,CdPb3
0.5819999999999999,Cd-Pb-Se,3,CdPb3Se4
2.3364000000000003,Cd-F-Pb,3,CdPbF6
0.0,Cd-O-Pb,3,CdPbO6
0.9252000000000002,Cd-Pb-S,3,CdPbS2
0.0,Cd-Pb-S,3,CdPbS2
0.0,Cd-Pd,2,CdPd
3.5839,C-Cd-N-Pd,4,CdPd(CN)6
0.0,Au-Cd-Pd,3,CdPd2Au
0.0,Cd-O-Pd,3,CdPd2O3
0.0,Cd-Pd,2,CdPd3
0.0,Cd-O-Pd,3,CdPd3O4
0.0,Cd-Pd-Se,3,CdPd5Se
0.0,Cd-F-Pd,3,CdPdF4
1.7751,Cd-F-Pd,3,CdPdF6
0.0,Cd-Pt,2,CdPt
5.3795,C-Cd-N-Pt,4,CdPt(CN)6
0.0,Cd-Pt,2,CdPt3
0.0,Cd-O-Pt,3,CdPt3O4
2.1901,Cd-F-Pt,3,CdPtF6
0.0,Cd-N-O-Re,4,CdRe2(NO2)4
0.8952000000000001,C-Cd-N-O-Re,5,CdRe2C4(N2O3)4
0.0,Cd-Pb-Rh,3,CdRh2Pb
0.0,Cd-F-Rh,3,CdRh3F6
0.0,Cd-F-Rh,3,CdRhF6
0.0,Cd-O-Rh,3,CdRhO3
0.0,Cd-O-Ru,3,CdRuO3
1.5192,Cd-S,2,CdS
0.2766000000000002,Cd-S,2,CdS
1.0492,Cd-S,2,CdS
1.4908,Cd-S,2,CdS
0.2793000000000001,Cd-S,2,CdS
1.125,Cd-S,2,CdS
1.1625,Cd-S,2,CdS2
3.0449,Cd-O-S,3,CdSO3
3.0731,Cd-O-S,3,CdSO3
0.8192,Cd-O-S,3,CdSO4
1.5751000000000002,Cd-O-S,3,CdSO4
3.0499,Cd-O-S,3,CdSO4
2.8625,Cd-O-S,3,CdSO4
0.0,Cd-O-S,3,CdSO5
0.0,Cd-Sb,2,CdSb
0.0200999999999997,Cd-Sb,2,CdSb
1.1429,Br-Cd-Sb-Se,4,CdSb2Se3Br2
0.0,Cd-Sb,2,CdSb3
0.0,Au-Cd-Sb,3,CdSbAu
1.5284999999999995,Br-Cd-S-Sb,4,CdSbS2Br
1.6373000000000002,Cd-Cl-S-Sb,4,CdSbS2Cl
0.0,Cd-Se,2,CdSe
0.5724,Cd-Se,2,CdSe
0.5096,Cd-Se,2,CdSe
0.6141999999999999,Cd-Se,2,CdSe2
2.9054,Cd-O-Se,3,CdSe2O5
3.0904000000000007,Cd-O-Se,3,CdSeO3
1.5661999999999998,Cd-O-Se,3,CdSeO4
1.6838,Cd-O-Se,3,CdSeO4
1.8471,Cd-O-Se,3,CdSeO4
1.94,Cd-O-Se,3,CdSeO4
1.7004,Cd-N-Si,3,CdSi7N10
0.4001999999999999,As-Cd-Si,3,CdSiAs2
1.7916999999999996,Cd-N-Si,3,CdSiN2
1.6216,Cd-N-Si,3,CdSiN2
0.6505999999999998,Cd-O-Si,3,CdSiO3
0.0,Cd-P-Si,3,CdSiP2
1.4257,Cd-P-Si,3,CdSiP2
0.0,Cd-Sn,2,CdSn
4.0588,Cd-F-H-O-Sn,5,CdSn2H12(OF)6
0.0,Cd-Sn,2,CdSn3
0.0,As-Cd-Sn,3,CdSnAs2
0.0062999999999999,As-Cd-Sn,3,CdSnAs2
0.0,Au-Cd-Sn,3,CdSnAu
3.8568,Cd-F-Sn,3,CdSnF6
0.0,Cd-N-Sn,3,CdSnN2
0.0,Cd-O-Sn,3,CdSnO3
0.7079,Cd-O-Sn,3,CdSnO3
0.9762,Cd-O-Sn,3,CdSnO3
0.6903999999999999,Cd-O-Sn,3,CdSnO3
0.2694999999999998,Cd-P-Sn,3,CdSnP2
0.0,Cd-Rh-Sn,3,CdSnRh2
0.0,Cd-Sb-Sn,3,CdSnSb2
0.0,Cd-Sn-Te,3,CdSnTe2
0.0,Cd-O-Tc,3,CdTcO3
0.0,Cd-Te,2,CdTe
0.6185999999999998,Cd-Te,2,CdTe
0.0215,Cd-Te,2,CdTe
0.0255,Cd-Te,2,CdTe
0.5846000000000002,Cd-Te,2,CdTe
1.4843000000000002,Cd-Te,2,CdTe
0.0,Cd-Pb-Te,3,CdTe2Pb
3.1894,Cd-Mo-O-Te,4,CdTeMoO6
3.2627,Cd-O-W,3,CdWO4
0.0,Ce,1,Ce
0.0,Ag-Ce-Ge,3,Ce(AgGe)2
0.0,Al-Ce-Cr,3,Ce(Al2Cr)4
0.0,Al-Ce-Cu,3,Ce(Al2Cu)4
0.0,Al-Ce-Fe,3,Ce(Al2Fe)4
0.0,Al-Ce-Fe,3,Ce(Al5Fe)2
0.0,Al-Ce-Ru,3,Ce(Al5Ru)2
0.0,Al-Au-Ce,3,Ce(AlAu)2
0.0,Al-Ce-Ga,3,Ce(AlGa)2
0.0,Al-Ce-Ge,3,Ce(AlGe)2
0.0,Al-Ce-Pd,3,Ce(AlPd)2
0.0,Al-Ce-Si,3,Ce(AlSi)2
0.0,Al-Ce-Zn,3,Ce(AlZn)2
0.0,As-Ce-Os,3,Ce(As3Os)4
0.2381999999999999,As-Ce-Ru,3,Ce(As3Ru)4
0.0,As-Ce-Pd,3,Ce(AsPd)2
0.0,As-Ce-Rh,3,Ce(AsRh)2
0.0,B-C-Ce,3,Ce(BC)2
0.0,B-Ce-Ir,3,Ce(BIr)2
0.0,B-Ce-Ir,3,Ce(BIr)4
0.0389999999999997,B-Ce-O,3,Ce(BO2)3
0.1462999999999992,B-Ce-O,3,Ce(BO2)3
0.0,B-Ce-O,3,Ce(BO2)3
0.0,B-Ce-Os,3,Ce(BOs)2
0.2268999999999996,B-Ce-Os,3,Ce(BOs)4
0.0,B-Ce-Rh,3,Ce(BRh)4
0.0,B-Ce-Ru,3,Ce(BRu)2
0.0,B-Ce-Ru,3,Ce(BRu)4
0.0,As-Cd-Ce,3,Ce(CdAs)3
0.0,Ce-Cl-O,3,Ce(ClO2)3
0.0,B-Ce-Co,3,Ce(Co2B)6
0.0,Ce-Co-Mo,3,Ce(Co5Mo)2
0.0,As-Ce-Co,3,Ce(CoAs)2
0.0,B-Ce-Co,3,Ce(CoB)4
0.0,Ce-Co-Ge,3,Ce(CoGe)2
0.0,Ce-Co-P,3,Ce(CoP)2
0.0,Ce-Co-Si,3,Ce(CoSi)2
0.0,B-Ce-Cr,3,Ce(CrB3)2
0.0,Ce-Cr-Si,3,Ce(CrSi)2
0.0,Ce-Cu-Ge,3,Ce(CuGe)2
0.0,Ce-Cu-Sb,3,Ce(CuSb)2
0.0,Ce-Cu-Si,3,Ce(CuSi)2
0.0,Ce-Cu-Sn,3,Ce(CuSn)2
0.0,Ce-Er-S,3,Ce(ErS2)3
0.0,Ce-Fe-Re,3,Ce(Fe5Re)2
0.1467,As-Ce-Fe,3,Ce(FeAs3)4
0.0,B-Ce-Fe,3,Ce(FeB)4
0.0,Ce-Fe-Ge,3,Ce(FeGe)2
0.0,Ce-Fe-P,3,Ce(FeP)2
0.5208999999999993,Ce-Fe-P,3,Ce(FeP3)4
0.2311999999999994,Ce-Fe-Sb,3,Ce(FeSb3)4
0.0,Ce-Fe-Si,3,Ce(FeSi)2
0.0,Ce-Ga-Ni,3,Ce(GaNi)2
0.0,Ce-Ga-Pd,3,Ce(GaPd)2
0.0,Ce-Ge-Rh,3,Ce(Ge2Rh3)2
0.0,Ce-Ge-Pt,3,Ce(Ge3Pt)4
0.0,Au-Ce-Ge,3,Ce(GeAu)2
0.0,Ce-Ge-Ir,3,Ce(GeIr)2
0.0,Ce-Ge-Pd,3,Ce(GePd)2
0.0,Ce-Ge-Pt,3,Ce(GePt)2
0.0,Ce-Ge-Rh,3,Ce(GeRh)2
0.0,Ce-Ge-Ru,3,Ce(GeRu)2
0.0,Ce-H-O,3,Ce(HO)3
0.0,Ce-Ho-S,3,Ce(HoS2)3
0.5691999999999999,Ce-I-O,3,Ce(IO3)3
0.0,Ce-In-Ni,3,Ce(In2Ni)3
0.0,Ce-In-Pt,3,Ce(InPt)2
0.0,Ce-Lu-S,3,Ce(LuS2)3
0.0,Ce-Mg-Si,3,Ce(MgSi)2
0.0,Ce-Fe-Mn,3,Ce(Mn2Fe)4
0.0,Al-Ce-Mn,3,Ce(MnAl2)4
0.0,Ce-Co-Mn,3,Ce(MnCo2)4
0.0,Ce-Ge-Mn,3,Ce(MnGe)2
0.0,Ce-Mn-Si,3,Ce(MnSi)2
0.3384999999999998,Ce-Mo-S,3,Ce(Mo3S4)2
0.2967000000000004,Ce-Mo-Se,3,Ce(Mo3Se4)2
0.0,Ce-Nd-S,3,Ce(NdS2)2
0.0,B-Ce-Ni,3,Ce(Ni2B)6
0.0,Ce-Ni-Sn,3,Ce(Ni2Sn)2
0.0,As-Ce-Ni,3,Ce(NiAs)2
0.0,Ce-Ge-Ni,3,Ce(NiGe)2
0.0,Ce-Ni-P,3,Ce(NiP)2
0.0,Ce-Ni-Sb,3,Ce(NiSb)2
0.0,Ce-Ni-Sn,3,Ce(NiSn)2
0.2829999999999995,Ce-Os-P,3,Ce(P3Os)4
0.1915000000000013,Ce-P-Ru,3,Ce(P3Ru)4
0.0,Ce-Ir-P,3,Ce(PIr)2
0.2227999999999994,Ce-O-P,3,Ce(PO3)3
0.0,Ce-O-P,3,Ce(PO4)3
0.0,Ce-P-Pd,3,Ce(PPd)2
0.0,Ce-P-Pt,3,Ce(PPt)2
0.0,Ce-P-Pt,3,Ce(PPt2)2
0.0,Ce-P-Rh,3,Ce(PRh)2
0.0,Ce-P-Ru,3,Ce(PRu)2
0.0,Ce-Pr-S,3,Ce(PrS2)2
0.0,Ce-Re-Si,3,Ce(Re2Si)2
0.0514000000000001,Ce-Os-Sb,3,Ce(Sb3Os)4
0.0433000000000003,Ce-Ru-Sb,3,Ce(Sb3Ru)4
0.0,Ce-Pd-Sb,3,Ce(SbPd)2
0.0,Ag-Ce-Si,3,Ce(SiAg)2
0.0,Au-Ce-Si,3,Ce(SiAu)2
0.0,Au-Ce-Si,3,Ce(SiAu2)2
0.0,Ce-Ir-Si,3,Ce(SiIr)2
0.0,Ce-Ni-Si,3,Ce(SiNi)2
0.0,Ce-Os-Si,3,Ce(SiOs)2
0.0,Ce-Pd-Si,3,Ce(SiPd)2
0.0,Ce-Pt-Si,3,Ce(SiPt)2
0.0,Ce-Rh-Si,3,Ce(SiRh)2
0.0,Ce-Ru-Si,3,Ce(SiRu)2
0.0,Ce-S-Sm,3,Ce(SmS2)2
0.0,Ce-Pd-Sn,3,Ce(Sn2Pd)2
0.0,Ce-Ru-Sn,3,Ce(Sn3Ru2)2
0.0,Ce-Ir-Sn,3,Ce(SnIr)2
0.0,Ce-Pd-Sn,3,Ce(SnPd)2
0.0,Ce-Pt-Sn,3,Ce(SnPt)2
0.0,Ce-Rh-Sn,3,Ce(SnRh)2
0.0,Ce-S-Tm,3,Ce(TmS2)3
1.3613,Ce-O-W,3,Ce(WO4)2
0.0,Ce-S-Y,3,Ce(YS2)3
0.0,Au-Ce-Zn,3,Ce(ZnAu2)2
0.0,Ce-P-Zn,3,Ce(ZnP)3
0.0,Ce-Ni-Sn,3,Ce10(NiSn)3
0.0,Ce-Ni-Si,3,Ce10Si5Ni
0.0,Ce-O-Si,3,Ce10Si8O3
0.0,Ce-Ge-Ni,3,Ce11(Ni2Ge3)2
0.0,Ce-O,2,Ce11O20
0.0,Ag-Ce-Sb,3,Ce2(AgSb)3
0.0205000000000001,Al-Ce-Ir,3,Ce2(Al3Ir)3
0.0,Al-Ce-Rh,3,Ce2(Al3Rh)3
0.0,B-Ce-Rh,3,Ce2(B2Rh3)3
0.0,C-Ce-N,3,Ce2(CN2)3
0.0,Ce-Co-Cu,3,Ce2(CoCu)5
0.0,Ce-Cu-Ge,3,Ce2(CuGe)3
0.0,Ce-Cu-Ni,3,Ce2(CuNi)5
0.0078000000000004,Ce-Ga-Ir,3,Ce2(Ga3Ir)3
0.0,Ce-Ga-Rh,3,Ce2(Ga3Rh)3
0.0,Ce-Ga-Ru,3,Ce2(Ga3Ru)3
0.0,Ce-Ge-O,3,Ce2(GeO3)3
0.0,Ce-In-Sn,3,Ce2(InSn)3
0.0,Ce-Cu-Mn,3,Ce2(MnCu3)3
0.0,Ce-Mn-Ni,3,Ce2(MnNi)5
0.0,B-Ce-Ni,3,Ce2(Ni7B2)3
0.0,Ce-Pd-Rh,3,Ce2(PdRh)3
0.0,B-Ce-Re,3,Ce2(ReB2)3
0.0,Ce-Pd-Si,3,Ce2(Si2Pd7)3
0.0,Ce-Pt-Si,3,Ce2(SiPt)3
0.0,Ce-Sn-Tl,3,Ce2(TlSn)3
0.0,Ce-Ge-Zn,3,Ce2(Zn2Ge)3
0.0,Ce-Ge-Zn,3,Ce2(ZnGe2)3
0.0,Ag-Ce-Ge,3,Ce2AgGe6
0.0,Ag-Ce-Hg,3,Ce2AgHg
0.0,Ag-Ce-Pb,3,Ce2AgPb
0.0,Ag-Ce-Sn,3,Ce2AgSn
0.0,Al-Ce-Pd,3,Ce2Al11Pd3
0.0,Al-Ce-Pt,3,Ce2Al16Pt9
0.0,Al-Ce-Co,3,Ce2Al2Co15
0.0,Al-Ce-Pd-Pt,4,Ce2Al2PdPt
0.0,Al-Ce-Fe,3,Ce2Al3Fe
0.0,Al-Ce-Ga-Pd,4,Ce2Al3GaPd4
0.0,Al-Ce-Ge,3,Ce2Al3Ge4
0.0,Al-Ce-Ru,3,Ce2Al3Ru
0.0,Al-Ce-Sn,3,Ce2Al3Sn
0.0,Al-Au-Ce-Cu,4,Ce2Al6CuAu
0.0,Al-Ce-Fe,3,Ce2AlFe3
0.0,Al-Ce-Ga-Ni,4,Ce2AlGaNi2
0.0,Al-Ce-Ge,3,Ce2AlGe6
0.0,Al-Ce-N-O,4,Ce2AlNO3
0.0,Al-Ce-Ru,3,Ce2AlRu2
0.0,Au-Ce,2,Ce2Au
0.0,B-Ce-Ir,3,Ce2B2Ir5
0.0,B-Ce-Ir-Rh,4,Ce2B4(IrRh)3
0.1048,B-Ce-O,3,Ce2B8O15
0.0,B-Ce-Pd,3,Ce2BPd6
0.0,Bi-Ce,2,Ce2Bi
0.0,Bi-Ce-Rh,3,Ce2Bi5Rh3
0.0,Bi-Ce-N,3,Ce2BiN
0.0,Bi-Ce-O,3,Ce2BiO2
0.0,Br-Ce,2,Ce2Br5
0.0,C-Ce-N-O,4,Ce2C(NO)2
0.0,C-Ce-Cl,3,Ce2C2Cl
0.0,C-Ce,2,Ce2C3
0.0,C-Ce-Cl-N,4,Ce2CN3Cl
0.0,Cd-Ce-O-Se,4,Ce2Cd(SeO)2
0.0,As-Cd-Ce-O,4,Ce2CdAs2O
0.0,Cd-Ce-Cu,3,Ce2CdCu2
0.0,Cd-Ce-Hg,3,Ce2CdHg
0.0,Cd-Ce-In,3,Ce2CdIn
0.0,Cd-Ce-Pb,3,Ce2CdPb
0.0,Cd-Ce-Pd,3,Ce2CdPd2
0.0,Cd-Ce-Pt,3,Ce2CdPt2
0.0,Cd-Ce-S,3,Ce2CdS4
0.0,Cd-Ce-Sb,3,Ce2CdSb4
0.0,Cd-Ce-Se,3,Ce2CdSe4
0.0,Ce-Cl-O,3,Ce2Cl2O
0.0,Ce-Co-P,3,Ce2Co12P7
0.0,Ce-Co-Cu,3,Ce2Co16Cu
0.0,Ce-Co,2,Ce2Co17
0.0,Ce-Co-H,3,Ce2Co17H3
0.0,Ce-Co-Ge-Ru,4,Ce2Co3Ge4Ru
0.0,Ce-Co-Ge,3,Ce2Co3Ge5
0.0,Ce-Co-Si,3,Ce2Co3Si5
0.0,B-Ce-Co,3,Ce2Co5B2
0.0,Ce-Co,2,Ce2Co7
0.0,B-Ce-Co,3,Ce2Co7B3
0.0,Ce-Co-Ge-Ru,4,Ce2CoGe4Ru3
0.0,Ce-Co-Ru,3,Ce2CoRu3
0.0,Ce-Co-Si,3,Ce2CoSi3
0.0,Ce-Cr-N,3,Ce2CrN3
0.0,Ce-Cu-N-O,4,Ce2Cu(NO)2
0.0,Au-Ce-Cu,3,Ce2Cu11Au
0.0,Ce-Cu-Sb,3,Ce2Cu3Sb4
0.0,Ce-Cu-Ge,3,Ce2CuGe3
0.0,Ce-Cu-Ge,3,Ce2CuGe6
0.0,Ce-Cu-O-S,4,Ce2CuS2O
0.0,Ce-Cu-Si,3,Ce2CuSi3
0.0,Ce-Cu-O-Te,4,Ce2CuTe2O
1.6279,Ce-Dy-O,3,Ce2Dy2O7
1.8007,Ce-Dy-O,3,Ce2Dy2O7
0.0,Ce-Fe-O-Se,4,Ce2Fe(SeO)2
0.0,Ce-Co-Fe,3,Ce2Fe12Co5
0.0,Ce-Co-Fe-N,4,Ce2Fe12Co5N3
0.0,Ce-Fe-P,3,Ce2Fe12P7
0.0,Ce-Fe,2,Ce2Fe17
0.0,C-Ce-Fe,3,Ce2Fe17C
0.0,C-Ce-Fe,3,Ce2Fe17C3
0.0,Ce-Fe-H,3,Ce2Fe17H3
0.0,Ce-Fe-N,3,Ce2Fe17N3
0.0,C-Ce-Fe-Si,4,Ce2Fe20Si2C
0.0,Ce-Fe-O-S,4,Ce2Fe2S2O3
0.0,Ce-Fe-S,3,Ce2Fe2S5
0.0,Ce-Fe-O-Se,4,Ce2Fe2Se2O3
0.0,C-Ce-Fe-Si,4,Ce2Fe2Si2C
0.0,Ce-Fe-Rh,3,Ce2Fe3Rh
0.0,As-Ce-Fe-O,4,Ce2FeAs2O
0.0,Ce-Fe-O-P,4,Ce2FeP2O
0.0,Ce-Fe-Ru,3,Ce2FeRu3
0.0,Ce-Fe-Si,3,Ce2FeSi3
0.0,Ce-Ga-Ni,3,Ce2Ga10Ni
0.0,Ce-Ga-Pd,3,Ce2Ga10Pd
0.0,Ce-Co-Ga,3,Ce2Ga2Co15
0.0,Ce-Fe-Ga,3,Ce2Ga2Fe15
0.0,Ce-Cu-Ga,3,Ce2Ga3Cu
0.0,Au-Ce-Ga,3,Ce2Ga5Au3
0.0,Ce-Cu-Ga,3,Ce2Ga5Cu3
0.0,Ce-Ga-Pd,3,Ce2Ga7Pd
0.0,Ce-Ge-Ir-Rh,4,Ce2Ge2IrRh
0.0,Ce-Ge-Rh,3,Ce2Ge3Rh
0.0,Ce-Ge-Ir,3,Ce2Ge5Ir3
0.0,Ce-Ge-Rh,3,Ce2Ge5Rh3
0.0,Au-Ce-Ge,3,Ce2Ge6Au
0.0,Ce-Ge-Pd,3,Ce2Ge6Pd
0.0,Ce-Ge-Pt,3,Ce2Ge6Pt
0.0,Ce-H,2,Ce2H5
0.0,Ce-Co-Hf,3,Ce2HfCo16
0.0,Ce-Hg-Pb,3,Ce2HgPb
0.0,Ce-In,2,Ce2In
0.0,Ce-In-Pd-Rh,4,Ce2In2PdRh
0.0,Ce-Cu-In,3,Ce2In3Cu
0.0,Ce-In-Pd,3,Ce2In5Pd4
0.0,Ce-Co-In,3,Ce2In8Co
0.0,Ce-In-Ir,3,Ce2In8Ir
0.0,Ce-In-Pd,3,Ce2In8Pd
0.0,Ce-In-Pt,3,Ce2In8Pt
0.0,Ce-In-Rh,3,Ce2In8Rh
0.0,Ag-Ce-In,3,Ce2InAg
0.0,Au-Ce-In,3,Ce2InAu2
0.0,Ce-Cu-In,3,Ce2InCu2
0.0,Ce-Ge-In,3,Ce2InGe2
0.0,Ce-In-Ni,3,Ce2InNi2
0.0,Ce-In-Pd,3,Ce2InPd2
0.0,Ce-In-Pt,3,Ce2InPt2
0.0,Ce-In-Rh,3,Ce2InRh2
0.0,Ce-Ir,2,Ce2Ir7
0.0,Ce-Mg,2,Ce2Mg
0.0,Ce-Mg-Ru,3,Ce2Mg17Ru4
0.0,Au-Ce-Mg,3,Ce2Mg5Au
0.0,Al-Ce-Mg,3,Ce2MgAl
0.0,Cd-Ce-Mg,3,Ce2MgCd
0.0,Ce-Co-Mg,3,Ce2MgCo9
0.0,Ce-Cu-Mg,3,Ce2MgCu2
0.0,Ce-Ge-Mg,3,Ce2MgGe2
0.0,Ce-In-Mg,3,Ce2MgIn
0.0456000000000003,Ce-Mg-Nb-O,4,Ce2MgNb2O8
0.0,Ce-Mg-Ni,3,Ce2MgNi2
0.0,Ce-Mg-Pb,3,Ce2MgPb
0.0,Ce-Mg-S,3,Ce2MgS4
0.0108000000000005,Ce-Mg-Se,3,Ce2MgSe4
0.0,Ce-Mg-Si,3,Ce2MgSi2
0.0,Ce-Mg-O-Ti,4,Ce2MgTi4O12
0.0411999999999999,Ce-Mg-O-Ti,4,Ce2MgTi4O12
0.0,Ce-Mg-O-V,4,Ce2MgV2O8
0.4736000000000002,Ce-Mg-O-V,4,Ce2MgV2O8
0.0,Ce-Mg-Zn,3,Ce2MgZn
0.0,Ce-Mn-O-Se,4,Ce2Mn(SeO)2
0.0,C-Ce-Mn,3,Ce2Mn17C2
0.0,Ce-Mn-O-Se,4,Ce2Mn2Se2O3
0.0,Al-Ce-Mn,3,Ce2Mn3Al
0.0,As-Ce-Cu-Mn,4,Ce2Mn3Cu9As7
0.0,Ce-Cu-Mn-P,4,Ce2Mn3Cu9P7
0.0,Ce-Mn-Pd-Si,4,Ce2Mn3Si4Pd
0.0,Al-Ce-Mn,3,Ce2Mn7Al10
0.0,Ce-Mn-N,3,Ce2MnN3
0.0,Ce-F-Mn-N,4,Ce2MnN3F
0.0,Ce-Mn-O-Sb,4,Ce2MnSb2O
0.0,Ce-Mn-Pd-Si,4,Ce2MnSi4Pd3
0.0,C-Ce-Mo,3,Ce2Mo2C3
0.0,Ce-Cl-N,3,Ce2NCl3
1.6430000000000002,Ce-Nd-O,3,Ce2Nd2O7
2.0728,Ce-Nd-O,3,Ce2Nd2O7
0.0,As-Ce-Ni,3,Ce2Ni12As7
0.0,Ce-Ni-P,3,Ce2Ni12P5
0.0,Ce-Ni-P,3,Ce2Ni12P7
0.0,Ce-Ni-Sn,3,Ce2Ni2Sn
0.0,Ce-Ge-Ni,3,Ce2Ni3Ge5
0.0,B-Ce-Ni,3,Ce2Ni5B4
0.0,C-Ce-Ni,3,Ce2Ni5C3
0.0,Ce-Ni-P,3,Ce2Ni7P4
0.0,B-Ce-Ni,3,Ce2NiB10
0.0,Ce-Ge-Ni,3,Ce2NiGe3
0.0,Ce-Ge-Ni,3,Ce2NiGe6
0.0,Ce-Ni-Pt,3,Ce2NiPt
0.0,Ce-Ni-Ru,3,Ce2NiRu3
0.0,Ce-Ni-Pt-Sn,4,Ce2NiSn2Pt
0.0,Ce-Ni-Sn,3,Ce2NiSn4
0.0,Ce-O,2,Ce2O3
0.0,Au-Ce-O-P,4,Ce2P2AuO
0.0,Ce-O-P-Ru,4,Ce2P2RuO
0.0,Ce-P-Pt,3,Ce2PPt8
0.0,Ce-Pb-S,3,Ce2PbS4
0.0,Ce-Pb-Se,3,Ce2PbSe4
0.0,Ce-Pb-Pd,3,Ce2Pd2Pb
0.0,Ce-O-Pr,3,Ce2PrO6
0.0,C-Ce-Re-Si,4,Ce2Re2Si2C
0.0,C-Ce-Re,3,Ce2ReC2
0.0,Ce-O-S,3,Ce2S2O
0.0,Ce-S,2,Ce2S3
0.1454999999999999,Ce-O-S,3,Ce2S4O17
0.0,Ce-O-S,3,Ce2SO2
0.0,Ce-Sb,2,Ce2Sb
0.0,Ce-Rh-Sb,3,Ce2Sb3Rh4
0.0,Au-Ce-Sb,3,Ce2SbAu3
0.0,Ce-O-Sb,3,Ce2SbO2
0.0,Ce-Sb-Te,3,Ce2SbTe
0.0,Ce-Sc-Si,3,Ce2ScSi2
0.0,Ce-F-Se,3,Ce2SeF4
0.9475999999999996,Ce-N-Se,3,Ce2SeN2
0.0,Ce-O-Se,3,Ce2SeO2
0.0,Ce-S-Se,3,Ce2SeS
0.0,Ce-H-Ru-Si,4,Ce2Si2HRu
0.0,Ce-Ni-Si,3,Ce2Si2Ni15
0.0,Ce-Ni-Pt-Si,4,Ce2Si2NiPt
0.0,Ce-Si-Sn,3,Ce2Si2Sn
0.0,Ce-Si,2,Ce2Si3
0.0,Ce-Ni-Si,3,Ce2Si3Ni
0.0,Ce-Rh-Si,3,Ce2Si3Rh
0.0,Ce-Os-Ru-Si,4,Ce2Si4OsRu3
0.0,Ce-Ir-Si,3,Ce2Si5Ir3
0.0,Ce-Ni-Si,3,Ce2Si5Ni17
0.0,Ce-Ni-Si,3,Ce2Si5Ni3
0.0,Ce-Pd-Si,3,Ce2Si5Pd3
0.0,Ce-Rh-Si,3,Ce2Si5Rh3
0.0,Ce-Si,2,Ce2Si7
0.0,Ce-Ni-Si,3,Ce2Si9Ni17
0.0,Ce-Ge-Si,3,Ce2SiGe
2.0295,Ce-O-Sm,3,Ce2Sm2O7
0.0,Ce-S-Sm,3,Ce2SmS4
0.0,Ce-Sn,2,Ce2Sn5
0.0,Ce-Hg-Sn,3,Ce2SnHg
0.0,Ce-Pd-Sn,3,Ce2SnPd2
0.0,Ce-S-Sn,3,Ce2SnS5
1.5320999999999998,Ce-O-Ta,3,Ce2Ta2O9
0.0,Ce-Te,2,Ce2Te5
0.0,Ce-O-Te,3,Ce2TeO2
0.0,Ce-Se-Te,3,Ce2TeSe
0.0,Ce-O-Th,3,Ce2Th2O7
2.0196,Ce-O-Th,3,Ce2ThO6
1.9619,Ce-O-Th,3,Ce2ThO6
0.0,Ce-S-Th,3,Ce2ThS3
0.0,Ce-Fe-H-Ti,4,Ce2Ti2Fe22H
0.0,Ce-O-Ti,3,Ce2Ti2O7
0.0,Ce-O-Si-Ti,4,Ce2Ti2SiO9
0.0,Ce-Co-Ti,3,Ce2TiCo16
0.0,Ce-O-Ti,3,Ce2TiO5
0.0,Ag-Ce-Tl,3,Ce2TlAg