eg,chemsys,nelements,formula
0.0,Ba-Dy-Mn-O-Sr,5,BaSrDyMnO6
2.8763,Ba-Dy-Nb-O-Sr,5,BaSrDyNbO6
3.0423,Ba-Dy-Nb-O-Sr,5,BaSrDyNbO6
3.5497,Ba-Dy-O-Sb-Sr,5,BaSrDySbO6
3.4710000000000005,Ba-Dy-O-Sb-Sr,5,BaSrDySbO6
0.0,Ba-Dy-O-Se-Sr,5,BaSrDySeO6
1.6306999999999996,Ba-Dy-O-Sr-V,5,BaSrDyVO6
2.0345,Ba-Dy-O-Sr-W,5,BaSrDyWO6
0.0,Ba-Dy-O-Sr-W,5,BaSrDyWO6
3.7462,Ba-Er-O-Sr,4,BaSrEr4O8
0.0,Ba-Cu-Er-O-Sr,5,BaSrErCu3O7
0.0,Ba-Eu-Sr,3,BaSrEu2
0.0,Ba-Eu-O-Sr,4,BaSrEu4O8
0.0,Ba-Bi-Eu-O-Sr,5,BaSrEuBiO6
0.0,Ba-Cr-Eu-O-Sr,5,BaSrEuCrO6
0.0,Ba-Cu-Eu-O-Sr,5,BaSrEuCu3O7
0.0,Ba-Eu-Nb-O-Sr,5,BaSrEuNbO6
0.0,Ba-Eu-O-Sb-Sr,5,BaSrEuSbO6
0.0,Ba-Eu-O-Se-Sr,5,BaSrEuSeO6
0.0,Ba-Eu-O-Sr-V,5,BaSrEuVO6
0.0041999999999999,Ba-Eu-O-Sr-W,5,BaSrEuWO6
0.0072,Ba-Eu-O-Sr-W,5,BaSrEuWO6
0.0489000000000006,Ba-Eu-O-Sr-W,5,BaSrEuWO6
0.2422000000000004,Ba-Eu-O-Sr-W,5,BaSrEuWO6
0.2515,Ba-Eu-O-Sr-W,5,BaSrEuWO6
0.8266999999999998,Ba-Eu-O-Sr-W,5,BaSrEuWO6
0.0837000000000003,Ba-Bi-Fe-O-Sr,5,BaSrFeBiO6
0.0,Ba-Ga-Sr,3,BaSrGa4
0.0,Ba-Bi-Ga-O-Sr,5,BaSrGaBiO6
3.0431000000000004,Ba-Gd-O-Sr,4,BaSrGd4O8
1.4773,Ba-Bi-Gd-O-Sr,5,BaSrGdBiO6
1.6993,Ba-Bi-Gd-O-Sr,5,BaSrGdBiO6
0.0,Ba-Cr-Gd-O-Sr,5,BaSrGdCrO6
2.7823,Ba-Gd-Nb-O-Sr,5,BaSrGdNbO6
2.6155000000000004,Ba-Gd-Nb-O-Sr,5,BaSrGdNbO6
1.5448,Ba-Gd-O-Sr-V,5,BaSrGdVO6
3.7482,Ba-Hf-O-Sr,4,BaSrHf2O6
0.0,Ba-Hf-O-Sr,4,BaSrHf4O12
0.0,Ba-Hf-Nb-O-Sr,5,BaSrHfNbO6
3.7375,Ba-Hf-O-Sn-Sr,5,BaSrHfSnO6
3.3278,Ba-Hf-O-Sr-Zr,5,BaSrHfZrO6
3.5330000000000004,Ba-Hf-O-Sr-Zr,5,BaSrHfZrO6
0.0,Ba-Hg-Sr,3,BaSrHg2
3.7376,Ba-Ho-O-Sr,4,BaSrHo4O8
3.2021999999999995,Ba-I-Sr,3,BaSrI4
3.3457,Ba-I-Sr,3,BaSrI4
0.0,Ba-Bi-In-O-Sr,5,BaSrInBiO6
0.7664000000000004,Ba-In-O-Sb-Sr,5,BaSrInSbO6
0.0,Ba-In-O-Sr-W,5,BaSrInWO6
3.538100000000001,Ba-Be-La-O-Sr,5,BaSrLa4Be2O10
3.2168,Ba-La-O-Sr,4,BaSrLa4O8
2.1236,Ba-Bi-La-O-Sr,5,BaSrLaBiO6
1.8835,Ba-Bi-La-O-Sr,5,BaSrLaBiO6
1.9480000000000004,Ba-Bi-La-O-Sr,5,BaSrLaBiO6
1.9044,Ba-Bi-La-O-Sr,5,BaSrLaBiO6
1.8136,Ba-Bi-La-O-Sr,5,BaSrLaBiO6
1.8732,Ba-Bi-La-O-Sr,5,BaSrLaBiO6
2.9712,Ba-La-Nb-O-Sr,5,BaSrLaNbO6
3.6013,Ba-La-O-Sb-Sr,5,BaSrLaSbO6
3.6884,Ba-La-O-Sb-Sr,5,BaSrLaSbO6
1.7237999999999998,Ba-La-O-Sr-V,5,BaSrLaVO6
1.8488,Ba-La-O-Sr-V,5,BaSrLaVO6
2.2543,Ba-La-O-Sr-W,5,BaSrLaWO6
0.0,Ba-La-O-Sr-W,5,BaSrLaWO6
0.0,Ba-Cu-Li-Nd-O-Sr-Tl,7,BaSrLiNdTlCu2O7
1.7561999999999998,Ba-Bi-Lu-O-Sr,5,BaSrLuBiO6
1.4692999999999998,Ba-Fe-Mg-O-Sr,5,BaSrMg(FeO2)4
0.0,Ba-Fe-Mg-O-Sr,5,BaSrMg(FeO2)4
0.3746,Ba-Fe-Mg-O-Sr,5,BaSrMg(FeO2)4
1.6244999999999998,Ba-Fe-Mg-O-Sr,5,BaSrMg(FeO2)4
0.0,Ba-Mg-Sr,3,BaSrMg14
0.9916,Ba-Mg-O-Sr,4,BaSrMg14O16
0.5862999999999996,Ba-Mg-O-Sr,4,BaSrMg14O16
0.0,Ba-Mg-Sr,3,BaSrMg6
0.6144999999999996,Ba-Mg-O-Sr,4,BaSrMg6O8
0.0670999999999999,Ba-Mg-O-Sr,4,BaSrMg6O8
4.522600000000001,Ba-Mg-O-Si-Sr,5,BaSrMgSi2O7
1.9918,Ba-Mg-O-Sr-Te,5,BaSrMgTeO6
3.2391,Ba-Mg-O-Sr-W,5,BaSrMgWO6
1.233,Al-Ba-Mn-O-Pb-Sr,6,BaSrMn2Al9PbO20
0.7890999999999999,Ba-Mn-O-Sr,4,BaSrMn2O6
0.0,Ba-Mn-O-Sr,4,BaSrMn4O12
2.0186000000000006,Ba-Mn-O-Sr-W,5,BaSrMnWO6
0.0,Ba-N-Sr,3,BaSrN
1.336,Ba-Nb-O-Sr,4,BaSrNb4O12
1.9496,Ba-Bi-Nb-O-Sr,5,BaSrNbBiO6
3.3943,Ba-In-Nb-O-Sr,5,BaSrNbInO6
1.2104999999999997,Ba-Nb-O-Sb-Sr,5,BaSrNbSbO6
1.1307,Ba-Nb-O-Sb-Sr,5,BaSrNbSbO6
0.8734000000000002,Ba-Nb-O-Sr-W,5,BaSrNbWO6
3.4682000000000004,Ba-Nd-O-Sr,4,BaSrNd4O8
1.7161,Ba-Bi-Nd-O-Sr,5,BaSrNdBiO6
2.0013,Ba-Bi-Nd-O-Sr,5,BaSrNdBiO6
0.0,Ba-Cr-Nd-O-Sr,5,BaSrNdCrO6
0.0,Ba-Cu-Nd-O-Sr,5,BaSrNdCu3O7
0.1436999999999999,Ba-Fe-Nd-O-Sr,5,BaSrNdFeO6
0.1469,Ba-Fe-Nd-O-Sr,5,BaSrNdFeO6
0.9078999999999996,Ca-O-Sb,3,Ca4Sb2O
1.0818999999999992,Ca-S-Sb,3,Ca4Sb2S
1.6934,Ca-N-Se,3,Ca4SeN4
0.137,B-Ca-O-Si,4,Ca4Si3(BO4)5
5.4639,B-Ca-H-O-Si,5,Ca4Si3B5(HO4)5
0.0,Ca-Pd-Si,3,Ca4Si3Pd4
0.3426999999999998,Ca-O-Si-W,4,Ca4Si6W5O17
0.5547000000000004,Ca-Cl-Cu-O-Sm,5,Ca4Sm2Cu3(ClO2)4
4.3982,B-Ca-O-Sm,4,Ca4SmB3O10
0.3971,Ca-S-Sn,3,Ca4Sn3S10
2.8888,Ca-N-Sn,3,Ca4SnN4
4.500500000000001,Ca-O-Ta,3,Ca4Ta2O9
4.1648,Ca-O-Ta,3,Ca4Ta2O9
1.2419000000000002,Ca-N-Te,3,Ca4TeN4
5.5383,Ca-F-Th,3,Ca4ThF12
0.0,Ca-Fe-O-Ti,4,Ca4Ti3FeO12
2.9791,Ca-O-Si-Sn-Ti,5,Ca4Ti3Si4SnO20
2.97,Ca-Ge-O-Si-Ti,5,Ca4Ti4Si3GeO20
0.0181,Ca-Mn-O-Ti,4,Ca4TiMn3O10
0.0,Ca-Mn-O-Ti,4,Ca4TiMn3O11
0.0,Ca-Mn-O-Ti,4,Ca4TiMn3O12
1.5392,Ca-N-Ti,3,Ca4TiN4
3.1716,Ca-O-Si-Sn-Ti,5,Ca4TiSi4Sn3O20
1.3965,C-Ca-O-Tl,4,Ca4Tl2CO9
0.0,Ca-O-Tl,3,Ca4Tl3O9
0.0,Al-Ca-O-Si-U,5,Ca4UAl2(SiO5)3
0.1238000000000001,Ca-N-V,3,Ca4VN4
4.4498,B-Ca-O-Y,4,Ca4YB3O10
3.0625000000000004,Ca-Fe-O-Si-Zn,5,Ca4Zn3Fe(SiO3)8
0.0,Ag-Ca-Zn,3,Ca4ZnAg3
3.1671,Ca-Fe-O-Si-Zn,5,Ca4ZnFe3(SiO3)8
0.0,Ca-O-Ta-Zr,4,Ca4Zr3TaO12
1.2352,Ca-N-Zr,3,Ca4ZrN4
2.8582,Ca-Ge-O-Ti-Zr,5,Ca4ZrTi3(GeO5)4
2.9380999999999995,Ca-O-Si-Ti-Zr,5,Ca4ZrTi3(SiO5)4
3.0056,Ca-O-Si-Ti-Zr,5,Ca4ZrTi3(SiO5)4
0.0,B-Ca-N,3,Ca5(BN2)3
1.335,C-Ca-N,3,Ca5(CN3)2
0.0,Ca-Co-N,3,Ca5(CoN3)2
0.7837000000000001,Ca-Cr-N,3,Ca5(CrN3)2
0.0,Ca-Ga-N,3,Ca5(GaN2)2
1.9765999999999997,Ca-Ge-N,3,Ca5(GeN3)2
0.0,Ca-Ge-Pd,3,Ca5(GePd)6
0.0,Ca-Ir-N,3,Ca5(IrN3)2
0.0,Ca-Mn-N,3,Ca5(MnN3)2
0.0,Ca-N-Os,3,Ca5(OsN3)2
0.1543999999999998,Ca-N-Pt,3,Ca5(PtN3)2
0.5209999999999999,Ca-N-Re,3,Ca5(ReN3)2
0.0,Ca-N-Rh,3,Ca5(RhN3)2
0.0,Ca-N-Ru,3,Ca5(RuN3)2
0.1053,Ca-O-Si,3,Ca5(Si3O11)2
2.4601999999999995,Ca-N-Si,3,Ca5(SiN3)2
2.1605,Ca-N-Si,3,Ca5(SiN3)2
0.0,Ca-O-Si,3,Ca5(SiO3)6
1.2693999999999996,Ca-N-Sn,3,Ca5(SnN3)2
1.7929,Ca-N-Ti,3,Ca5(TiN3)2
0.0,Ca-N-V,3,Ca5(VN3)2
0.0,Ag-Ca,2,Ca5Ag3
0.0,As-Ca,2,Ca5As3
0.0,Au-Ca,2,Ca5Au2
0.0,Au-Ca,2,Ca5Au3
0.0,Au-Ca,2,Ca5Au4
4.236800000000001,B-Ca-F-O,4,Ca5B3O9F
0.0,Ca-Cd-Cu,3,Ca5CdCu2
0.6227,Ca-Cd-N,3,Ca5CdN4
2.7029999999999994,Ca-Co-O-Si,4,Ca5Co3(SiO4)4
0.0,Ca-Co-N,3,Ca5CoN4
0.0,Ca-Cu-Ir-O,4,Ca5Cu2(IrO6)2
0.0,Ca-Cu-O-Rh,4,Ca5Cu2(RhO6)2
0.0,Ca-Cu-N,3,Ca5CuN4
0.2355,Ca-Dy-Mn-O-Ti,5,Ca5Dy3Ti5Mn3O24
0.0,Ca-Fe-N,3,Ca5FeN4
0.0,Ca-Ga,2,Ca5Ga3
0.0019,Ca-Gd-Mn-O-Ti,5,Ca5Gd3Ti5Mn3O24
0.0,Ca-Ge,2,Ca5Ge3
0.0,Ca-Ge-H,3,Ca5Ge3H
1.3748,Ca-Hf-N,3,Ca5Hf2N6
0.0,Ca-Hg,2,Ca5Hg3
0.5537000000000001,Ca-Ho-Mn-O-Ti,5,Ca5Ho3Ti5Mn3O24
0.0,Ca-Mg,2,Ca5Mg
1.0404999999999998,Ca-Mg-N,3,Ca5MgN4
0.0,Ca-Mn-Ni-O,4,Ca5Mn2(NiO6)2
2.1137999999999995,Ca-Mn-O,3,Ca5Mn4O9
0.6032000000000002,Ca-Mn-O,3,Ca5Mn8O13
0.0,Ca-Mn-N,3,Ca5MnN4
0.7167000000000003,Ca-N-Nb,3,Ca5NbN5
0.0,Ca-Ge-Ni,3,Ca5Ni17Ge8
0.0,As-Ca-Ni,3,Ca5Ni9As7
0.0,Ca-Ni-P,3,Ca5Ni9P7
0.6082999999999998,Ca-N-Ni,3,Ca5NiN4
0.6829000000000001,Ca-H-P,3,Ca5P3H
1.1418000000000004,Ca-P,2,Ca5P8
0.0,Ca-Pd,2,Ca5Pd2
0.0,Ca-Pt,2,Ca5Pt2
0.0,Ca-Pt,2,Ca5Pt3
0.0,Ca-Sb,2,Ca5Sb3
1.4346,Ca-Co-O-Sc,4,Ca5Sc2(CoO6)2
2.7934,Ca-F-H-O-Si,5,Ca5Si2HO9F
2.9067000000000003,Ca-F-H-O-Si,5,Ca5Si2HO9F
0.0,Ca-Si,2,Ca5Si3
2.9774,Ca-O-Ta,3,Ca5Ta4O15
4.84,Ca-F-Th,3,Ca5ThF14
2.0894000000000004,Ca-N-O-W,4,Ca5W(N2O)2
0.2351000000000001,Ca-Mn-O-Ti-Y,5,Ca5Y3Ti5Mn3O24
0.0,Ca-Zn,2,Ca5Zn3
0.8740000000000001,Ca-N-Zn,3,Ca5ZnN4
1.1656,Ca-N-Zr,3,Ca5Zr2N6
0.0,Ag-Ca-N,3,Ca6Ag16N
0.0,Ag-Ca-Ge,3,Ca6Ag3Ge5
0.0,Al-Ca-F-N,4,Ca6Al2NF
0.0551000000000003,Al-Ca-N-Si,4,Ca6Al3(Si4N9)2
2.3922000000000003,Br-Ca-Cl-N,4,Ca6Br2N3Cl
0.1344000000000003,Ca-Co-O-Rh,4,Ca6Co3RhO12
0.0,Ca-Cr-H-N,4,Ca6Cr2HN6
0.0,Ca-Cu-Sn,3,Ca6Cu2Sn7
0.0,Ca-Fe-N,3,Ca6FeN5
0.8130000000000002,Ca-Ga-N,3,Ca6GaN5
0.2814000000000001,Ca-Ge-O,3,Ca6Ge2O
4.1479,Ca-Hf-O,3,Ca6HfO8
0.0,Ca-F-In-N,4,Ca6In2NF
0.0,Ca-Cr-La-Mn-O,5,Ca6La2Mn7CrO24
0.7323999999999997,Ca-Mn-N,3,Ca6MnN5
0.0,Ca-N-Pb-Se,4,Ca6Pb2SeN
0.9348,Ca-Co-O-Sc,4,Ca6Sc(CoO4)3
4.4792,Ca-H-O-Si,4,Ca6Si6H2O19
0.7095,Ca-O-Si,3,Ca6Si6O19
0.0,Ca-O-Si,3,Ca6Si6O19
0.1322999999999998,Ca-F-N-Sn,4,Ca6Sn2NF
0.0,Ca-N-O-Sn,4,Ca6Sn2NO
3.6946,Ca-Cl-H,3,Ca7(H6Cl)2
0.0,Ca-Mn-N,3,Ca7(MnN3)2
0.9521000000000002,Ca-N-Zn,3,Ca7(ZnN3)2
0.5033999999999996,Ca-Cu-O-Pt,4,Ca7Cu(PtO6)2
0.0,Ca-Ge,2,Ca7Ge
1.1909999999999998,Ca-Hf-N,3,Ca7HfN6
0.0,Ca-Ir-N,3,Ca7IrN6
0.0,Ca-Co-Mg-O,4,Ca7Mg(CoO3)8
1.1673000000000004,Ca-Mg-N,3,Ca7Mg2N6
0.0,Ca-Co-Cu-Mg-O,5,Ca7MgCo7CuO24
0.0,Ca-Co-Fe-Mg-O,5,Ca7MgFeCo7O24
0.0,Ca-Fe-Mg-Mn-O,5,Ca7MgMn7FeO24
0.0,Ca-Mg-Mn-O,4,Ca7MgMn8O24
0.0,Ca-Mg-Mn-O-Ti,5,Ca7MgTiMn7O24
0.0866000000000006,Ca-Ir-Ni-O,4,Ca7Ni(IrO6)2
0.9103,Ca-N-Pb,3,Ca7PbN6
0.0861,Ca-N-Pt,3,Ca7PtN6
0.0,Ca-N-Re,3,Ca7ReN6
0.0,Ca-N-Rh,3,Ca7RhN6
1.149,Ca-N-Sn,3,Ca7SnN6
0.0,Ca-N-Te,3,Ca7TeN6
1.3186,Ca-N-Ti,3,Ca7TiN6
0.0,Ca-N-Tl,3,Ca7Tl3N2
1.1936999999999998,Ca-N-Zr,3,Ca7ZrN6
1.8679999999999997,Al-Ca-Fe-O,4,Ca8Al3(FeO4)5
0.0,Ca-Fe-N,3,Ca8Fe3N8
0.0891000000000001,Ca-Fe-O-W,4,Ca8Fe5(WO8)3
0.0,Ca-Mn-N,3,Ca8Mn3N8
0.0,Al-Ca-Mn-O,4,Ca8Mn4Al4O21
0.0,Al-Ca-Mn-O,4,Ca8Mn6Al2O21
0.0,Al-Ca-Mn-O,4,Ca8Mn6Al2O23
0.0,Ca-Cr-Mn-O,4,Ca8Mn6Cr2O21
0.0,Ca-Cr-Mn-O,4,Ca8Mn6Cr2O23
0.0,Ca-Cr-Mn-O,4,Ca8Mn7CrO20
0.0,Ca-Cr-Mn-O,4,Ca8Mn7CrO21
0.0,Ca-Cr-Mn-O,4,Ca8Mn7CrO22
0.0,Ca-Cr-Mn-O,4,Ca8Mn7CrO23
0.0,Ca-Cr-Mn-O,4,Ca8Mn7CrO24
0.0,Ca-Mn-O,3,Ca8Mn8O21
0.0,Ca-Mn-O,3,Ca8Mn8O23
1.1457999999999997,Ca-Mo-O,3,Ca8Mo7O20
0.0,Ca-Mn-O-Ti,4,Ca8Ti2Mn6O21
0.0,Ca-Mn-O-Ti,4,Ca8Ti2Mn6O23
0.3079999999999998,Ca-Mn-O-Ti,4,Ca8Ti3Mn5O21
0.0,Ca-Mn-O-Ti,4,Ca8Ti3Mn5O22
0.0,Ca-Mn-O-Ti,4,Ca8Ti3Mn5O23
0.0,Ca-Mn-O-Ti,4,Ca8Ti3Mn5O24
0.0,Ca-Mn-O-Ti,4,Ca8TiMn7O20
0.0,Ca-Mn-O-Ti,4,Ca8TiMn7O21
0.0,Ca-Mn-O-Ti,4,Ca8TiMn7O22
0.0,Ca-Mn-O-Ti,4,Ca8TiMn7O23
0.0,Ca-Mn-O-Ti,4,Ca8TiMn7O24
0.0,Ca-Fe-N,3,Ca9(FeN4)2
0.0,Ca-Mn-N,3,Ca9(MnN4)2
0.0,Ac-Ca,2,CaAc3
0.0,Ac-Au-Ca,3,CaAcAu2
0.0,Ac-Ca-Ga,3,CaAcGa2
0.0,Ac-Ca-Hg,3,CaAcHg2
0.0,Ac-Ca-In,3,CaAcIn2
0.0,Ac-Ca-Mg,3,CaAcMg2
0.0,Ac-Ca-Rh,3,CaAcRh2
0.0,Ac-Ca-Tl,3,CaAcTl2
0.0,Ac-Ca-Zn,3,CaAcZn2
0.0,Ag-Ca,2,CaAg
0.0,Ag-Ca,2,CaAg2
0.0,Ag-Ca-Sn,3,CaAg2Sn
0.0,Ag-Ca,2,CaAg3
0.0,Ag-Ca-O-P,4,CaAg4(PO3)4
0.0,Ag-Ca-O-Ru,4,CaAg4(RuO3)4
0.0206999999999997,Ag-As-Ca,3,CaAgAs
1.3571999999999995,Ag-As-Ca-O,4,CaAgAsO4
0.5504,Ag-As-Ca-O,4,CaAgAsO5
0.0,Ag-Bi-Ca,3,CaAgBi
0.0,Ag-Ca-F,3,CaAgF5
0.0,Ag-Ca-Ge,3,CaAgGe
0.0,Ag-Ca-Hg,3,CaAgHg2
0.4598,Ag-Ca-N,3,CaAgN
0.0,Ag-Ca-O,3,CaAgO2
0.0070000000000005,Ag-Ca-P,3,CaAgP
0.0,Ag-Ca-P,3,CaAgP
0.0,Ag-Ca-Pb,3,CaAgPb
0.0,Ag-Ca-Sb,3,CaAgSb
0.0,Ag-Ca-Sn,3,CaAgSn
0.252,Al-Ca-F-O,4,CaAl(OF2)2
5.236199999999999,Al-Ca-O-Si,4,CaAl12Si4O27
0.0,Al-Ca,2,CaAl2
0.6629999999999999,Al-Ca-F-O,4,CaAl2(OF)4
0.5736,Al-Ca-F-O,4,CaAl2(OF3)2
4.5347,Al-Ca-O-Si,4,CaAl2(Si3O8)2
3.1603000000000003,Al-Ca-O-Si,4,CaAl2(SiO3)4
4.729699999999999,Al-Ca-O-Si,4,CaAl2(SiO4)2
4.8989,Al-Ca-O-Si,4,CaAl2(SiO4)2
0.0,Al-Ca-O-Si,4,CaAl2(SiO5)2
4.8228,Al-B-Ca-O,4,CaAl2B2O7
0.5430999999999999,Al-Ca-F,3,CaAl2F10
7.222700000000001,Al-Ca-F,3,CaAl2F8
0.0,Al-Ca-F-H-O-Pb,6,CaAl2H4Pb2(O2F3)2
0.7255000000000003,Al-Ca-F-H-O-Pb,6,CaAl2H4Pb2(O2F3)2
1.1089000000000002,Al-Ca-F-H-O-Pb,6,CaAl2H4Pb2(O2F3)2
0.1660999999999997,Al-Ca-F-H-O-Pb,6,CaAl2H4Pb2(O2F3)2
0.7031000000000001,Al-Ca-F-H-O-Pb,6,CaAl2H4Pb2(O2F3)2
4.8499,Al-Ca-O,3,CaAl2O4
4.9805,Al-Ca-O,3,CaAl2O4
4.655200000000001,Al-Ca-H-O-Si,5,CaAl2Si(HO2)4
4.169700000000001,Al-Ca-H-O-Si,5,CaAl2Si2(H2O5)2
4.3611,Al-Ca-H-O-Si,5,CaAl2Si2(H2O5)2
5.1385000000000005,Al-Ca-H-O-Si,5,CaAl2Si2(H2O5)2
0.1492999999999997,Al-Ca-H-O-Si,5,CaAl2Si2HO9
4.541499999999999,Al-Ca-O-Si,4,CaAl2Si3O10
4.596000000000001,Al-Ca-O-Si,4,CaAl2SiO6
4.549800000000001,Al-Ca-O-Si,4,CaAl2SiO6
4.619100000000001,Al-Ca-O-Si,4,CaAl2SiO6
4.291799999999999,Al-Ca-O-Si,4,CaAl2SiO6
4.605699999999999,Al-Ca-O-Si,4,CaAl2SiO6
4.536299999999999,Al-Ca-O-Si,4,CaAl2SiO6
0.3196000000000003,Al-Ca-O-V,4,CaAl2V4O8
0.0,Al-Au-Ca,3,CaAl3Au
0.0,Al-Ca-O-P-S,5,CaAl3PSO14
0.0,Al-Ca,2,CaAl4
2.8867,Al-Ca-O-Si,4,CaAl4(SiO6)2
3.9994,Al-Ca-O,3,CaAl4O7
4.5346,Al-Ca-H-O-Si,5,CaAl4Si2(HO6)2
5.105,Al-Ca-O-Si,4,CaAl4Si2O11
0.8502999999999998,Al-Ca-O-Tl,4,CaAl4Tl4O12
0.3690999999999995,Al-Ca-O-Tl,4,CaAl4Tl4O12
5.5902,Al-Ca-H-O-S,5,CaAl6H12(SO7)4
0.0,Al-Ca-Co,3,CaAl9Co2
0.0,Al-Ca-Ni,3,CaAl9Ni
0.0,Al-Au-Ca,3,CaAlAu
5.376600000000001,Al-B-Ca-O,4,CaAlB3O7
4.4509,Al-B-Ca-O,4,CaAlBO4
0.0,Al-Ca-Cu-O-Si,5,CaAlCuSi2O9
6.8943,Al-Ca-F,3,CaAlF5
7.1538,Al-Ca-F,3,CaAlF5
0.0,Al-Ca-Ga,3,CaAlGa
3.3519,Al-Ca-H,3,CaAlH5
3.3102,Al-Ca-H,3,CaAlH5
0.0,Al-Ca-Pd,3,CaAlPd
0.0,Al-Ca-Pt,3,CaAlPt
0.0,Al-Ca-Si,3,CaAlSi
0.3693999999999997,Al-Ca-H-Si,4,CaAlSiH
5.2447,Al-Ca-H-O-Si,5,CaAlSiHO5
4.980499999999999,Al-Ca-F-O-Si,5,CaAlSiO4F
0.3200000000000003,Al-Ca-O-Si,4,CaAlSiO5
0.0,As-Ca,2,CaAs
0.0,As-Ca-O-W,4,CaAs(WO2)2
3.7934,As-Ca-H-O,4,CaAs2(HO2)4
4.8545,As-Ca-F,3,CaAs2F12
0.0,As-Ca,2,CaAs3
0.0,As-Au-Ca,3,CaAsAu
4.0551,As-Ca-H-O,4,CaAsH5O6
3.4041,As-Ca-H-O,4,CaAsH5O6
0.2057,As-Ca-N-O,4,CaAsNO11
0.3252,As-Ca-N-O,4,CaAsNO11
0.0,As-Ca-O,3,CaAsO4
0.3679000000000001,As-Ca-O,3,CaAsO6
0.0,As-Ca-Pt,3,CaAsPt
2.213,As-Ca-O-W,4,CaAsWO5
0.0,Au-Ca,2,CaAu
0.0,Au-Ca,2,CaAu2
0.0,Au-Ca,2,CaAu3
0.0,Au-Ca,2,CaAu5
0.0,B-Ca,2,CaB2
5.5553,B-Ca-H-O,4,CaB2(H2O3)2
3.7871,B-Ca-H-N,4,CaB2(H5N)2
5.4565,B-Ca-H-O,4,CaB2(H6O5)2
5.3334,B-Ca-H-O,4,CaB2(HO)8
5.4176,B-Ca-H-O,4,CaB2(HO)8
0.0,B-Ca-H-O,4,CaB2(HO4)2
0.0,B-Ca-H,3,CaB2H
5.2523,B-Ca-H-O,4,CaB2H10O9
0.8222,B-Ca-H-O,4,CaB2H2O7
0.0,B-Ca-H,3,CaB2H3
0.0,B-Ca-O,3,CaB2O9
0.0,B-Ca-Rh,3,CaB2Rh3
5.4108,B-Ca-H-O,4,CaB3H7O9
5.8113,B-Ca-H-O,4,CaB3HO6
0.4029000000000002,B-Ca-O,3,CaB3O10
0.4131000000000001,B-Ca-O,3,CaB3O10
0.0,B-Ca-O,3,CaB3O10
0.0416999999999999,B-Ca-O,3,CaB3O10
0.0,B-Ca,2,CaB4
5.5566,B-Ca-H-N,4,CaB4(H10N)2
6.3176,B-Ca-O,3,CaB4O7
0.0,B-Ca,2,CaB6
0.0,B-C-Ca,3,CaBC
4.963699999999999,B-Ca-H-O,4,CaBHO3
4.4927,B-Ca-H-O,4,CaBHO3
0.3587,B-Ca-O,3,CaBO3
0.5519000000000001,B-Ca-O,3,CaBO3
0.0,B-Ca-O,3,CaBO3
5.3231,B-Ca-O-P,4,CaBPO5
0.0,B-Ca-Pd,3,CaBPd3
0.0,Be-Ca,2,CaBe13
3.9112,Be-Ca-O,3,CaBe3O4
0.6178000000000001,As-Be-Ca-O,4,CaBeAsO5
5.822699999999999,B-Be-Ca-O,4,CaBeB2O5
0.0,Be-Ca-Ge,3,CaBeGe
0.0,Be-Ca-O,3,CaBeO3
6.1785,Be-Ca-F-O-P,5,CaBePO4F
0.5863,Be-Ca-O-P,4,CaBePO5
0.0,Be-Ca-Si,3,CaBeSi
0.0,Bi-Ca,2,CaBi2
0.0,Bi-C-Ca-O,4,CaBi2(CO)2
1.0618,Bi-C-Ca-O,4,CaBi2(CO4)2
0.0,Bi-Ca-O-P,4,CaBi2(PO5)2
0.0,Bi-Br-Ca-O,4,CaBi2Br2O3
0.0,Bi-Ca-O,3,CaBi2O5
0.0,Bi-Ca,2,CaBi3
0.0,Bi-Ca-Cl-O-Pb-W,6,CaBi3PbWClO8
0.7755000000000005,Bi-Ca-O,3,CaBi4O9
3.5376000000000003,Bi-Ca-O-P,4,CaBi6(PO5)4
2.1407000000000003,As-Bi-Ca-O,4,CaBiAsO5
0.4227000000000001,As-Bi-Ca-O,4,CaBiAsO6
0.0,Au-Bi-Ca,3,CaBiAu
0.0,Au-Bi-Ca,3,CaBiAu4
0.0777999999999998,B-Bi-Ca,3,CaBiB
2.2248,Bi-C-Ca-F-O,5,CaBiCO4F
1.0483000000000002,Bi-C-Ca-F-O,5,CaBiCO4F
3.6238,Bi-Ca-Cl-O,4,CaBiClO2
3.951400000000001,Bi-Ca-F,3,CaBiF5
0.0372000000000001,Bi-Ca-F,3,CaBiF6
1.6177,Bi-Ca-I-O,4,CaBiIO2
2.2881,Bi-Ca-N-O,4,CaBiNO5
0.0,Bi-Ca-O,3,CaBiO3
0.6776,Bi-Ca-O,3,CaBiO3
0.0804,Bi-Ca-O,3,CaBiO3
0.0,Bi-Ca-Pd,3,CaBiPd
0.0,Bi-Ca-Pd,3,CaBiPd2
0.0,Br-Ca,2,CaBr
4.5304,Br-Ca,2,CaBr2
4.4482,Br-Ca,2,CaBr2
0.0,C-Ca,2,CaC
1.7072000000000005,C-Ca,2,CaC2
0.0,C-Ca,2,CaC2
2.7709,C-Ca,2,CaC2
2.0383,C-Ca,2,CaC2
2.3706,C-Ca,2,CaC2
1.3593,C-Ca,2,CaC2
1.7605,C-Ca,2,CaC2
2.5547,C-Ca,2,CaC2
2.8643,C-Ca,2,CaC2
2.3396,C-Ca,2,CaC2
3.8085,C-Ca-N-O,4,CaC2(NO)2
3.4012,C-Ca-N-S,4,CaC2(SN)2
0.608,C-Ca-O,3,CaC2O5
1.6242,C-Ca-F-O-S,5,CaC2S2(OF)2
5.9997,C-Ca-F-O-S,5,CaC2S2(OF)6
0.0,C-Ca,2,CaC4
0.0,C-Ca,2,CaC6
3.702900000000001,C-Ca-N,3,CaC7N10
3.5774,C-Ca-N,3,CaCN2
4.8573,C-Ca-O,3,CaCO3
5.0381,C-Ca-O,3,CaCO3
4.9216,C-Ca-O,3,CaCO3
4.9875,C-Ca-O,3,CaCO3
4.275500000000001,C-Ca-O,3,CaCO3
4.999499999999999,C-Ca-O,3,CaCO3
4.1871,C-Ca-O,3,CaCO3
5.7242,C-Ca-O,3,CaCO3
4.718299999999999,C-Ca-O,3,CaCO3
4.6975,C-Ca-O,3,CaCO3
4.9726,C-Ca-O,3,CaCO3
0.0063999999999999,C-Ca-O,3,CaCO3
1.2546000000000004,C-Ca-O,3,CaCO3
0.0,Ca-Cd,2,CaCd
3.3363,C-Ca-Cd-O,4,CaCd(CO3)2
3.1642,Ca-Cd-O-W,4,CaCd(WO4)2
0.0,Ca-Cd,2,CaCd2
0.0,Ca-Cd-Cu,3,CaCd2Cu9
0.0,Ca-Cd-Pd,3,CaCd2Pd
0.0,Ca-Cd,2,CaCd3
0.0459,Ca-Cd-O,3,CaCd3O4
0.1892,Ca-Cd-O,3,CaCd3O4
0.0,Ca-Cd-O-Tc,4,CaCd4(TcO3)4
0.0,Au-Ca-Cd,3,CaCdAu
0.0,Au-Ca-Cd,3,CaCdAu2
0.0,Ca-Cd-Ge,3,CaCdGe
0.0,Ca-Cd-Hg,3,CaCdHg2
0.3754999999999997,Ca-Cd-O,3,CaCdO2
3.8448,Ca-Cd-O-P,4,CaCdP2O7
0.0,Ca-Cd-Pb,3,CaCdPb
0.0,Ca-Cd-Pd,3,CaCdPd
0.0,Ca-Cd-Pd,3,CaCdPd2
0.0,Ca-Cd-Pt,3,CaCdPt
2.2389,Ca-Cd-S,3,CaCdS2
0.0,Ca-Cd-Si,3,CaCdSi
0.0,Ca-Cd-Sn,3,CaCdSn
0.0,Ca-Ce-O-V,4,CaCe3V4O16
0.0,Ag-Ca-Ce,3,CaCeAg2
0.4086999999999996,Al-Ca-Ce-Fe-O-Si,6,CaCeAl2FeSi3O13
0.3082000000000002,Al-Ca-Ce-Fe-O-Si,6,CaCeAlFe2Si3O13
0.0,C-Ca-Ce,3,CaCeC4
0.0,Ca-Cd-Ce,3,CaCeCd2
0.2682000000000002,Ca-Ce-Eu-Ge-O,5,CaCeEuGeO6
0.0,Ca-Ce-Hg,3,CaCeHg2
0.0,Ca-Ce-In,3,CaCeIn2
0.0,Ca-Ce-Mg,3,CaCeMg14
0.0,Ca-Ce-Mg,3,CaCeMg2
0.0,Ca-Ce-Mg,3,CaCeMg6
0.0,Ca-Ce-Mn-O,4,CaCeMnO4
0.3891999999999997,Ca-Ce-N,3,CaCeN2
2.3372999999999995,Ca-Ce-O,3,CaCeO3
0.0,Ca-Ce-Pd,3,CaCePd2
0.0,Ca-Ce-Rh,3,CaCeRh2
1.6062,Ca-Ce-O-V,4,CaCeV2O8
0.0,Ca-Ce-Zn,3,CaCeZn2
4.8803,Ca-Cl,2,CaCl2
5.3533,Ca-Cl,2,CaCl2
5.3978,Ca-Cl,2,CaCl2
5.3328,Ca-Cl,2,CaCl2
5.5987,Ca-Cl,2,CaCl2
5.6702,Ca-Cl-F,3,CaClF
0.6506,Ca-Cl-O,3,CaClO
1.935,Ca-Co-Ge-O,4,CaCo(GeO3)2
0.0,Ca-Co-Ge-O,4,CaCo(GeO3)4
3.0271,Ca-Co-O-P,4,CaCo(PO3)4
1.1736,Ca-Co-O-Si,4,CaCo(SiO3)2
0.4199999999999999,Ca-Co-O-P,4,CaCo2(P2O7)2
0.0,Ca-Co-O-P,4,CaCo2(PO5)2
0.0,Ca-Co-O-Si,4,CaCo2(SiO3)4
0.242,Ca-Co-O,3,CaCo2O5
0.0,Ca-Co-O,3,CaCo2O5
0.0,Ca-Co-S,3,CaCo2S5
0.0,Ca-Co-O-Si,4,CaCo3(SiO3)4
0.4400999999999999,Ca-Co-O-P,4,CaCo3P3O13
0.0,Ca-Co-Cu-O,4,CaCo4(CuO4)3
0.0,Ca-Co-O,3,CaCo4O9
0.0,Ca-Co-O,3,CaCo5O7
0.0,Ca-Co-O-Sb,4,CaCo5SbO8
0.3613000000000002,Ca-Co-F-O,4,CaCo6(OF5)2
2.3183,Ca-Co-F-O,4,CaCo6(OF5)2
1.7866,Ca-Co-F-O,4,CaCo6(OF5)2
1.7614,Ca-Co-F-O,4,CaCo6(OF5)2
1.9298,As-Ca-Co-H-O,5,CaCoAsHO5
1.0381,As-Ca-Co-O,4,CaCoAsO5
3.3187000000000006,B-Ca-Co-H-O-P,6,CaCoBP2H5O11
0.0,Ca-Co-Cu-Se,4,CaCoCu3Se4
2.9021,Ca-Co-F,3,CaCoF4
0.0096,Ca-Co-F,3,CaCoF5
1.3636,Ca-Co-F,3,CaCoF5
1.3308,Ca-Co-F,3,CaCoF6
2.0128,Ca-Co-Ge-O,4,CaCoGeO4
0.0,Ca-Co-O,3,CaCoO2
0.3937000000000004,Ca-Co-O,3,CaCoO2
0.0,Ca-Co-O,3,CaCoO3
2.8539000000000003,Ca-Co-O-P,4,CaCoP2O7
0.0,Ca-Co-Se,3,CaCoSe2
0.0,Ca-Co-Si,3,CaCoSi
0.0,Ca-Co-O-Si,4,CaCoSi2O7
0.0,Ca-Co-O-W,4,CaCoWO6
0.0,Ca-Cr-O-Si,4,CaCr(SiO3)2
0.0,Ca-Cr-O-P,4,CaCr2(P2O7)2
0.0,Ca-Cr-O-P,4,CaCr2(PO5)2
0.7672999999999996,Ca-Cr-Cu-O-Sb,5,CaCr2Cu3(SbO6)2
2.4129,Ca-Cr-F,3,CaCr2F10
0.0,Ca-Cr-F,3,CaCr2F12
1.4544,Ca-Cr-F,3,CaCr2F12
0.0,Ca-Cr-O,3,CaCr2O2
2.2576,Ca-Cr-O,3,CaCr2O4
0.7989999999999999,Ca-Cr-O,3,CaCr2O4
0.0,Ca-Cr-O,3,CaCr2O4
2.1024000000000003,Ca-Cr-O,3,CaCr2O4
2.1336000000000004,Ca-Cr-O,3,CaCr2O4
0.5819999999999999,Ca-Cr-O,3,CaCr2O5
0.5045000000000002,Ca-Cr-O,3,CaCr2O5
0.2753999999999998,Ca-Cr-O,3,CaCr2O6
2.6242,Ca-Cr-O,3,CaCr2O7
0.4825,Ca-Cr-F,3,CaCr3F6
0.2010999999999999,Ca-Cr-F,3,CaCr3F6
1.0738,Ca-Cr-O-P,4,CaCr3P3O13
0.0,Ca-Cr-Cu-O,4,CaCr4(CuO4)3
0.0,Ca-Cr-Hg-O,4,CaCr4(HgO4)2
0.0928,Ca-Cr-O-P,4,CaCr4(PO4)4
0.9438999999999996,Ca-Cr-O-P,4,CaCr4(PO4)4
0.2495000000000002,Ca-Cr-O,3,CaCr4O6
0.0,Ca-Cr-O,3,CaCr4O8
0.4304000000000001,Ca-Cr-O,3,CaCr4O9
0.1387,Ca-Cr-F-O,4,CaCr6(OF)4
1.3041999999999998,As-Ca-Cr-O,4,CaCrAsO5
0.0632000000000001,Ca-Cr-Cu-Se,4,CaCrCu3Se4
0.0,Ca-Cr-F,3,CaCrF4
3.1383,Ca-Cr-F,3,CaCrF5
2.7248,Ca-Cr-F,3,CaCrF5
1.5339000000000005,Ca-Cr-F,3,CaCrF6
0.0,Ca-Cr-N,3,CaCrN2
0.0,Ca-Cr-O,3,CaCrO2
1.6415999999999995,Ca-Cr-O,3,CaCrO2
0.7450000000000001,Ca-Cr-O,3,CaCrO2
0.6886000000000001,Ca-Cr-O,3,CaCrO2
0.7117,Ca-Cr-O,3,CaCrO2
0.4069000000000002,Ca-Cr-O,3,CaCrO3
2.3714,Ca-Cr-O,3,CaCrO4
0.0,Ca-Cu,2,CaCu
0.0,Ca-Cu-Ge-O,4,CaCu(GeO3)2
0.1738999999999999,Ca-Cu-O-P,4,CaCu(PO3)4
0.0,Ca-Cu-O-Si,4,CaCu(SiO3)2
0.0684,Ca-Cu-Ge-O,4,CaCu2(GeO3)4
0.0,Ca-Cu-Ge-O,4,CaCu2(GeO3)4
1.4312,B-Ca-Cl-Cu-H-O,6,CaCu2B2H8(ClO4)2
1.2139000000000002,Ca-Cu-F,3,CaCu2F8
0.0,Ca-Cu-O,3,CaCu2O3
0.0,Bi-Ca-Cu-O,4,CaCu3(BiO3)4
0.7027999999999999,Ca-Cu-Ge-O,4,CaCu3(GeO3)4
0.0,Ca-Cu-Ir-O,4,CaCu3(IrO3)4
0.0994000000000001,Ca-Cu-Mo-O,4,CaCu3(MoO3)4
0.0,Ca-Cu-Ni-O,4,CaCu3(NiO3)4
0.0,Ca-Cu-O-Pt,4,CaCu3(PtO3)4
0.0,Ca-Cu-O-Ru,4,CaCu3(RuO3)4
0.0,Ca-Cu-O-Sb,4,CaCu3(SbO3)4
0.3997000000000001,Ca-Cu-O-Sn,4,CaCu3(SnO3)4
0.0,Ca-Cu-O-W,4,CaCu3(WO3)4
0.0,Ca-Cu-Ni-Se,4,CaCu3NiSe4
0.0,Ca-Cu-O,3,CaCu3O4
0.0,Ca-Cu-O-P,4,CaCu3P3O13
0.0,Ca-Cu,2,CaCu5
0.0,Ca-Cu-Sn,3,CaCu9Sn4
0.0,As-Ca-Cu,3,CaCuAs
0.2947999999999999,As-Ca-Cu-H-O,5,CaCuAsHO5
0.3425000000000002,As-Ca-Cu-O,4,CaCuAsO5
0.0,Bi-Ca-Cu,3,CaCuBi
0.6036999999999999,Bi-Ca-Cu-O,4,CaCuBiO5
0.7392000000000001,Ca-Cu-F,3,CaCuF4
0.0,Ca-Cu-F,3,CaCuF5
0.1495999999999999,Ca-Cu-F,3,CaCuF5
0.0,Ca-Cu-Ge,3,CaCuGe
0.0,Ca-Cu-Ge-H-O,5,CaCuGeH2O5
0.4616999999999999,C-Ca-Cu-H-O,5,CaCuH4(CO2)4
0.2561,Ca-Cu-N,3,CaCuN
0.0,Ca-Cu-N,3,CaCuN
0.032,Ca-Cu-O,3,CaCuO2
0.0929999999999999,Ca-Cu-O,3,CaCuO2
0.0,Ca-Cu-O,3,CaCuO2
0.0,Ca-Cu-O,3,CaCuO3
0.0,Ca-Cu-P,3,CaCuP
0.2677999999999998,Ca-Cu-O-P,4,CaCuP2O7
0.0,Ca-Cu-O-P,4,CaCuP2O7
0.0089000000000005,Ca-Cu-O-P-Ru,5,CaCuP4(RuO7)2
0.004,Ca-Cu-O-P-Ru,5,CaCuP4(RuO7)2