eg,chemsys,nelements,formula
3.6689,Ag-Cl-K-Y,4,K2YAgCl6
2.6382,Ag-F-K-Y,4,K2YAgF6
2.5089,Ag-I-K-Y,4,K2YAgI6
1.8862,Au-Br-K-Y,4,K2YAuBr6
2.2731000000000003,Au-Cl-K-Y,4,K2YAuCl6
1.3878,Au-F-K-Y,4,K2YAuF6
1.1783,Au-I-K-Y,4,K2YAuI6
2.3227,Br-Cu-K-Y,4,K2YCuBr6
2.6002,Cl-Cu-K-Y,4,K2YCuCl6
0.5981999999999998,Cu-F-K-Y,4,K2YCuF6
1.8261,Cu-I-K-Y,4,K2YCuI6
0.0,Br-Hg-K-Y,4,K2YHgBr6
0.0,Cl-Hg-K-Y,4,K2YHgCl6
0.0,F-Hg-K-Y,4,K2YHgF6
0.0,Hg-I-K-Y,4,K2YHgI6
3.1685000000000003,Cl-In-K-Y,4,K2YInCl6
3.3664,F-In-K-Y,4,K2YInF6
1.6128000000000002,K-Nb-O-Y,4,K2YNb5O15
4.2179,C-K-O-P-Y,5,K2YPCO7
0.0,K-O-Sb-Y,4,K2YSbO7
3.4148,Br-K-Tl-Y,4,K2YTlBr6
4.3847,F-K-Tl-Y,4,K2YTlF6
2.8725,Ge-K-O-Zn,4,K2Zn(GeO3)2
1.98,H-K-N-Zn,4,K2Zn(H2N)4
0.0,K-O-Se-Zn,4,K2Zn(SeO5)2
3.9235,K-O-Si-Zn,4,K2Zn(SiO3)2
0.0,Cu-K-O-S-Zn,5,K2Zn2Cu(SO)2
1.4031,K-O-Zn,3,K2Zn2O3
4.2227,K-O-Si-Zn,4,K2Zn2Si8O19
0.0,As-Ge-K-Zn,4,K2Zn3GeAs4
1.4102,K-O-Zn,3,K2Zn3O4
2.5684,K-S-Zn,3,K2Zn3S4
1.985,K-Se-Zn,3,K2Zn3Se4
0.2170999999999998,As-K-Si-Zn,4,K2Zn3SiAs4
0.1604999999999998,As-K-Zn,3,K2Zn5As4
0.7588000000000001,K-O-Zn,3,K2Zn6O7
1.0654,K-O-Zn,3,K2Zn6O7
3.6576,Br-K-Zn,3,K2ZnBr4
3.8018,Br-K-Zn,3,K2ZnBr4
2.696,Cr-H-K-O-Zn,5,K2ZnCr2(H2O5)2
2.1978,Cr-H-K-O-Zn,5,K2ZnCr4(HO4)4
4.3016000000000005,F-K-Zn,3,K2ZnF4
4.141,H-K-Zn,3,K2ZnH4
3.1091999999999995,H-I-K-O-Zn,5,K2ZnH4(I2O7)2
0.0,K-N-Zn,3,K2ZnN4
1.9785,K-O-Zn,3,K2ZnO2
5.0611,H-K-O-P-Zn,5,K2ZnP4(HO2)8
0.4070999999999999,H-K-O-P-Zn,5,K2ZnP4H8O15
2.827,K-S-Zn,3,K2ZnS2
2.3191,K-Se-Zn,3,K2ZnSe2
3.2679,K-O-Si-Zn,4,K2ZnSi3O8
2.0537,K-Te-Zn,3,K2ZnTe2
0.0,K-Zr,2,K2Zr
3.4092,B-K-O-Zr,4,K2Zr(BO3)2
2.8092,H-K-N-Zr,4,K2Zr(H2N)6
4.4906,K-O-P-Zr,4,K2Zr(PO4)2
4.813,K-O-Si-Zr,4,K2Zr(SiO3)3
5.6959,F-K-Zr,3,K2ZrF6
5.3289,F-K-Zr,3,K2ZrF6
3.914800000000001,Ge-K-O-Zr,4,K2ZrGe2O7
3.6617,K-O-Zr,3,K2ZrO3
0.0,Cu-K-S,3,K3(Cu4S3)2
0.0,Cu-K-Se,3,K3(Cu4Se3)2
0.0,Cu-K-O,3,K3(CuO2)2
0.0,Cu-K-S,3,K3(CuS)4
0.0,Fe-K-O,3,K3(FeO2)2
0.0769,Fe-K-O,3,K3(FeO2)4
0.0,Fe-K-Se,3,K3(FeSe)8
1.3828,K-Ni-O,3,K3(NiO2)2
0.0,K-O-Pd,3,K3(PdO2)2
0.0,K-O-Pt,3,K3(PtO2)2
0.3421,K-O-S,3,K3(SO4)2
0.0,K-O-Se,3,K3(SeO4)2
0.0,K-S-V,3,K3(VS2)5
0.0,Ac-K,2,K3Ac
0.0,Ag-K,2,K3Ag
1.2533,Ag-As-K,3,K3Ag3As2
0.0,Al-K,2,K3Al
1.1862000000000004,Al-As-K,3,K3Al2As3
3.3168,Al-Br-K,3,K3AlBr6
4.6098,Al-Cl-K,3,K3AlCl6
6.2999,Al-F-K,3,K3AlF6
1.7988000000000002,Al-H-K,3,K3AlH6
2.8773,Al-H-K,3,K3AlH6
1.7713,Al-I-K,3,K3AlI6
2.8977,Al-K-O,3,K3AlO3
0.1118,As-K,2,K3As
2.9616,As-Br-K,3,K3AsBr6
3.4739,As-Cl-K,3,K3AsCl6
0.2892999999999999,As-F-K,3,K3AsF12
4.3402,As-F-K,3,K3AsF6
4.227399999999999,As-F-K,3,K3AsF6
4.2458,As-F-K,3,K3AsF6
2.178,As-I-K,3,K3AsI6
0.0,Au-Br-K,3,K3AuBr6
0.1652,Au-Cl-K,3,K3AuCl6
0.7448999999999999,Au-F-K,3,K3AuF12
0.7349999999999999,Au-F-K,3,K3AuF6
1.0341,Au-F-K,3,K3AuF6
0.5612,Au-K-O,3,K3AuO
2.0524,Au-K-Se,3,K3AuSe2
4.7872,B-Br-H-K,4,K3B12H12Br
4.6690000000000005,B-H-I-K,4,K3B12H12I
0.0,B-K,2,K3B17
0.6386999999999999,B-K-O,3,K3B3O10
5.212000000000001,B-Br-K-O,4,K3B6BrO10
5.3729,B-Cl-K-O,4,K3B6ClO10
1.3129,As-B-K,3,K3BAs2
1.5852000000000002,B-K-N,3,K3BN2
1.6658,B-K-P,3,K3BP2
0.0,Ba-K,2,K3Ba
3.9056,Ba-C-K-O-P,5,K3BaPCO7
0.0,Be-K,2,K3Be
6.2169,Be-F-K,3,K3BeF5
3.6358,Be-C-K-O-P,5,K3BePCO7
0.1286,Bi-K,2,K3Bi
0.0369,Bi-K,2,K3Bi
0.0,Bi-K,2,K3Bi2
3.4347,Bi-Br-K,3,K3BiBr6
4.035,Bi-Cl-K,3,K3BiCl6
4.5618,Bi-F-K,3,K3BiF6
1.1394,Bi-K-O,3,K3BiO4
0.4455,Bi-C-K-O-P,5,K3BiPCO7
4.4948,Br-Cl-K,3,K3BrCl2
0.8913,Br-K-O,3,K3BrO
2.6745,C-K-N-O,4,K3C6N9O
0.2972,C-K-O,3,K3CO
3.8463,C-F-K-O,4,K3CO3F
0.0,Ca-K,2,K3Ca
0.0196999999999999,Ca-K-O-P,4,K3Ca(PO4)2
4.9617,Ca-H-K-O-P,5,K3CaP2HO8
4.3648,C-Ca-K-O-P,5,K3CaPCO7
0.0,Cd-K,2,K3Cd
0.0,Ce-K,2,K3Ce
0.3684999999999991,As-Ce-K-O,4,K3Ce(AsO4)2
0.2618999999999998,Ce-K-O-P,4,K3Ce(PO4)2
0.3147999999999999,Br-Ce-K,3,K3CeBr6
0.3591999999999999,Ce-Cl-K,3,K3CeCl6
0.9897,Cl-K-O,3,K3ClO
1.0264,Cl-K-O,3,K3ClO
0.0,Co-K,2,K3Co
2.6886,Co-K-N-O,4,K3Co(NO2)6
0.0,Co-F-K,3,K3Co2F7
2.8984,Co-F-K,3,K3CoF6
0.0,Cr-K,2,K3Cr
3.2374,Cr-H-K-O,4,K3Cr(HO)6
0.0644,Cr-F-K,3,K3CrF3
4.3858,Cr-F-K,3,K3CrF6
4.3353,Cr-F-K,3,K3CrF6
1.2424,Cr-K-O,3,K3CrO4
1.8189,Cr-K-O,3,K3CrO8
2.6393,C-Cr-K-O-P,5,K3CrPCO7
0.0,Cu-K,2,K3Cu
4.164899999999999,C-Cu-K-N,4,K3Cu(CN)4
0.0,Cu-F-K,3,K3Cu2F7
0.0,Cu-H-K,3,K3Cu2H7
0.0,Cu-H-K-O-P,5,K3Cu2P4HO14
1.2741,As-Cu-K,3,K3Cu3As2
1.2892,Cu-K-P,3,K3Cu3P2
0.2125999999999999,C-Cu-K-O-P,5,K3CuPCO7
0.0,Dy-K,2,K3Dy
4.6582,Cl-Dy-K,3,K3DyCl6
5.146100000000001,Dy-F-K,3,K3DyF6
5.9154,Dy-F-K,3,K3DyF6
6.6673,Dy-F-K,3,K3DyF6
0.0,Er-K,2,K3Er
4.6701,Cl-Er-K,3,K3ErCl6
5.9116,Er-F-K,3,K3ErF6
5.2085,Er-F-K,3,K3ErF6
6.7433,Er-F-K,3,K3ErF6
1.7368,Er-K-Mg-O-V,5,K3ErMgV2O8
3.4218,Er-K-O-V,4,K3ErV2O8
0.0,Eu-K,2,K3Eu
0.0,Eu-K-O-P,4,K3Eu(PO4)2
0.0,Cl-Eu-K,3,K3EuCl6
0.0,Eu-F-K,3,K3EuF6
0.0,Eu-K-O-V,4,K3EuV2O8
0.8008,F-Fe-K,3,K3FeF3
4.1409,F-Fe-K,3,K3FeF6
0.0,Fe-K-O,3,K3FeO3
0.0,Ga-K,2,K3Ga
2.1845,Br-Ga-K,3,K3GaBr6
3.4506,Cl-Ga-K,3,K3GaCl6
5.7897,F-Ga-K,3,K3GaF6
0.8318000000000001,Ga-I-K,3,K3GaI6
2.6237,Ga-K-O,3,K3GaO3
1.2922,Gd-K-O-P,4,K3Gd(PO4)2
3.1837,Cl-Gd-K,3,K3GdCl6
4.6378,F-Gd-K,3,K3GdF6
0.0,Ge-K,2,K3Ge
0.8175999999999999,Au-Ge-K,3,K3Ge4Au
0.0,Ge-H-K-O,4,K3Ge7HO20
0.0,Ge-K-O,3,K3Ge7O20
3.1836,Ge-H-K-N-O,5,K3GeH2NO3
2.9928,Ge-H-K-O-S,5,K3GeH3S3O2
3.5577,C-Ge-K-O-P,5,K3GePCO7
2.4164,Ge-K-S,3,K3GeS3
1.8279,Ge-K-Se,3,K3GeSe3
5.408899999999999,H-K-O-S,4,K3H(SO4)2
5.4133,H-K-O-S,4,K3H(SO4)2
3.3252,H-K-O-Se,4,K3H(SeO4)2
3.5728,H-K-O-Se,4,K3H(SeO4)2
4.6422,H-K-N-O-S,5,K3H2S2NO7
2.2508,H-K-N-O-S,5,K3H2S2NO7
2.7196,H-K-Pd,3,K3H5Pd
3.1237,H-K-Pt,3,K3H5Pt
2.1501,C-Cl-H-K-O-Rh,6,K3H8RhC4(ClO6)2
0.0,Hf-K,2,K3Hf
0.0,Hg-K,2,K3Hg
0.0,Hg-K,2,K3Hg11
0.0,Ho-K,2,K3Ho
5.0659,Ho-K-O-P,4,K3Ho(PO4)2
4.6877,Cl-Ho-K,3,K3HoCl6
6.0044,F-Ho-K,3,K3HoF6
5.173,F-Ho-K,3,K3HoF6
6.7356,F-Ho-K,3,K3HoF6
1.7641000000000002,Ho-K-Mg-O-V,5,K3HoMgV2O8
3.4261,Ho-K-O-V,4,K3HoV2O8
3.731,Br-I-K,3,K3I2Br
1.0284000000000002,I-K-O,3,K3IO
0.0,In-K,2,K3In
3.2415000000000003,I-In-K-O,4,K3In(IO3)6
0.0,Au-In-K,3,K3InAu5
2.4083,Br-In-K,3,K3InBr6
3.6446,Cl-In-K,3,K3InCl6
5.1959,F-In-K,3,K3InF6
1.2778,I-In-K,3,K3InI6
0.7887,In-K-P,3,K3InP2
0.0,Ir-K,2,K3Ir
0.0,Ir-K-N-O,4,K3Ir(NO2)6
2.5668,F-Ir-K,3,K3IrF6
2.3671,F-Ir-K,3,K3IrF6
2.3527,F-Ir-K,3,K3IrF6
3.8821,As-K-La-O,4,K3La(AsO4)2
4.2235,K-La-O-P,4,K3La(PO4)2
4.5674,Cl-K-La,3,K3LaCl6
0.0,K-Li,2,K3Li
0.1944999999999999,Ir-K-Li-O,4,K3LiIrO4
4.608300000000001,K-Li-O-P,4,K3LiP2O7
2.8256,K-Li-O-Ti,4,K3LiTi7O16
0.0,K-Lu,2,K3Lu
3.2916000000000003,B-K-Lu-O,4,K3Lu(BO3)2
5.0522,K-Lu-O-P,4,K3Lu(PO4)2
4.992900000000001,K-Lu-O-P,4,K3Lu(PO4)2
0.1966,B-K-Lu-O-P,5,K3LuB2(PO7)2
4.6928,Cl-K-Lu,3,K3LuCl6
6.0081,F-K-Lu,3,K3LuF6
6.722899999999999,F-K-Lu,3,K3LuF6
3.6132,K-Lu-O-Si,4,K3LuSi2O7
0.0,K-Mg,2,K3Mg
4.5973,Cl-K-Mg,3,K3Mg2Cl7
0.0,K-Mg-O-Si,4,K3Mg4(Si2O7)2
0.0,Cu-F-K-Mg,4,K3MgCu2F9
0.7431000000000001,K-Mg-Mn-O,4,K3MgMnO4
0.0,K-Mg-Nb-O,4,K3MgNbO8
2.4677999999999995,K-Mg-Nb-O,4,K3MgNbO8
4.4383,C-K-Mg-O-P,5,K3MgPCO7
2.2993,K-Mg-S-Sb,4,K3MgSbS4
1.6743,K-Mg-S-Sb,4,K3MgSbS4
1.7434999999999998,K-Mg-S-Sb,4,K3MgSbS4
1.5560999999999998,K-Mg-O-Sc-V,5,K3MgScV2O8
1.3096,K-Mg-O-V,4,K3MgV3O8
0.4282000000000001,K-Mg-O-V,4,K3MgVO4
0.0,K-Mn,2,K3Mn
1.1779,Cl-K-Mn,3,K3Mn2Cl7
1.0475,F-K-Mn,3,K3Mn2F7
0.1263999999999999,K-Mn-O,3,K3Mn2O8
0.0,K-Mn-O,3,K3Mn2O8
0.8097,Cr-K-Mn-O,4,K3MnCrO8
0.0,F-K-Mn,3,K3MnF6
1.5729,H-K-Mn,3,K3MnH5
3.5748,C-K-Mn-O-P,5,K3MnPCO7
0.0,K-Mo,2,K3Mo
1.5527,Br-K-Mo,3,K3MoBr6
1.6364,Cl-K-Mo,3,K3MoCl6
3.353,F-K-Mo,3,K3MoF6
1.4013000000000002,I-K-Mo,3,K3MoI6
0.0,K-N,2,K3N
0.2174,K-N-O,3,K3NO3
3.6559,K-N-O,3,K3NO4
0.0,K-Na,2,K3Na
1.0345,Fe-K-Na-O,4,K3Na(FeO4)2
0.4915999999999998,K-Na-O-Ru,4,K3Na(RuO4)2
0.0,K-Na-O-Ru,4,K3Na(RuO4)2
5.2996,K-Na-O-S,4,K3Na(SO4)2
3.2916,K-Na-O-Se,4,K3Na(SeO4)2
3.5425,K-Na-O-Se,4,K3Na(SeO4)2
2.2126,K-Li-Na-O-Te,5,K3Na2LiTeO6
6.9785,B-F-K-Na-Si,5,K3Na4Si3BF22
0.0,K-Mo-Na-O-V,5,K3Na5V2(MoO4)6
0.0,K-Mo-Na-O-V,5,K3Na5V3Mo5O24
0.0,K-Mo-Na-O-V,5,K3Na5VMo7O24
6.6922,Be-F-K-Na,4,K3NaBe2F8
3.0764,Cr-K-Na-O,4,K3NaCr2O8
2.4922,Cr-K-Na-O,4,K3NaCr2O8
2.7309,Cr-K-Na-O,4,K3NaCr2O8
0.25,Cl-Fe-K-Na,4,K3NaFeCl6
0.3849,Cl-Fe-K-Na,4,K3NaFeCl6
0.0,Cl-Fe-K-Na,4,K3NaFeCl6
2.2279,H-K-Na,3,K3NaH4
0.5026000000000002,K-Mg-Na-O-Ru,5,K3NaMg(RuO4)2
0.2851999999999999,K-Mg-Na-O-Ru,5,K3NaMg(RuO4)2
1.5352,Cr-K-Mg-Na-O,5,K3NaMgCr2O8
1.3387,Cr-K-Mg-Na-O,5,K3NaMgCr2O8
0.0,K-Na-O-Os,4,K3NaOs2O9
4.5042,F-K-Na-O-P,5,K3NaP2(O3F)2
1.8231,K-Na-O-Re,4,K3NaRe2O9
1.9482,K-Na-S,3,K3NaS2
3.6675,K-Na-O-Th,4,K3NaTh2O6
0.0,K-Nb,2,K3Nb
1.9206,B-K-Nb-O,4,K3Nb3(BO6)2
2.3347,B-K-Nb-O,4,K3Nb3(BO6)2
0.0,F-K-Nb-O,4,K3Nb8(O5F2)2
0.0,F-K-Nb,3,K3NbF6
4.1033,F-H-K-Nb-O,5,K3NbHOF7
2.3973,K-Nb-O,3,K3NbO8
0.0,K-Nd,2,K3Nd
4.9309,K-Nd-O-P,4,K3Nd(PO4)2
3.7704,Br-K-Nd,3,K3NdBr6
4.5581,Cl-K-Nd,3,K3NdCl6
5.614,F-K-Nd,3,K3NdF6
3.6565,K-Nd-O-V,4,K3NdV2O8
3.5833000000000004,F-K-Ni,3,K3Ni2F7
0.0,F-K-Ni,3,K3NiF6
1.5999,K-Ni-O,3,K3NiO2
3.7622,C-K-Ni-O-P,5,K3NiPCO7
1.543,H-K-Np-O,4,K3Np(H3O4)2
1.4329,H-K-Np-O,4,K3Np(H3O4)2
0.0,K-Np-O-Si,4,K3Np3Si2O13
0.1050999999999999,K-Np-O,3,K3NpO8
0.0,K-Os,2,K3Os
0.313,F-K-Os,3,K3OsF6
0.2117,K-P,2,K3P
4.9848,F-H-K-O-P,5,K3P2H(O3F)2
3.4901,F-K-P,3,K3PF6
4.6692,F-K-O-P,4,K3PO3F2
0.0,K-O-P,3,K3PO5
0.0,Au-K-Pb,3,K3PbAu5
0.0,K-Pd,2,K3Pd
0.0,F-K-Pd,3,K3PdF6
0.0,K-Pm,2,K3Pm
0.0,K-Pr,2,K3Pr
4.8643,K-O-P-Pr,4,K3Pr(PO4)2
3.7651,Br-K-Pr,3,K3PrBr6
4.566000000000001,Cl-K-Pr,3,K3PrCl6
5.521100000000001,F-K-Pr,3,K3PrF6
1.1730999999999998,H-K-O-Pu,4,K3Pu(H3O4)2
0.7336000000000001,H-K-O-Pu,4,K3Pu(H3O4)2
0.0,K-Rb,2,K3Rb
3.37,F-K-Mn-Rb,4,K3RbMn2F12
0.0,K-Re,2,K3Re
2.3945,C-K-N-O-Re,5,K3ReC4(N2O)2
2.5346,C-K-N-O-Re,5,K3ReC4(N2O)2
2.4696,C-K-N-O-Re,5,K3ReC4(N2O)2
0.0,C-K-N-O-Re,5,K3ReC4(N2O)2
2.3920000000000003,C-K-N-O-Re,5,K3ReC4(N2O)2
1.814,Cl-F-K-Re,4,K3ReClF6
0.0,H-K-Re,3,K3ReH6
2.7906,K-Mo-O-Re,4,K3ReMoO8
0.0441999999999999,K-N-Re,3,K3ReN3
0.0,K-Rh,2,K3Rh
0.0,K-N-O-Rh,4,K3Rh(NO2)6
2.1828,F-K-Rh,3,K3RhF6
2.0571,F-K-Rh,3,K3RhF6
2.0825,F-K-Rh,3,K3RhF6
0.0,K-Ru,2,K3Ru
0.0,F-K-Ru,3,K3RuF12
0.0,F-K-Ru,3,K3RuF6
0.3340999999999999,F-K-Ru,3,K3RuF6
4.9511,F-K-O-S,4,K3SO4F
5.2302,F-K-O-S,4,K3SO4F
0.6773,K-Sb,2,K3Sb
0.3893999999999999,K-Sb,2,K3Sb
1.1046,Au-K-Sb,3,K3Sb2Au3
2.9622,F-K-N-O-Sb,5,K3Sb2N2O6F7
2.96,Br-K-Sb,3,K3SbBr6
3.3878,Cl-K-Sb,3,K3SbCl6
3.8417,F-K-Sb,3,K3SbF6
1.8402,K-O-Sb,3,K3SbO4
0.2911000000000001,C-K-O-P-Sb,5,K3SbPCO7
2.1851,K-S-Sb,3,K3SbS4
2.1341,K-S-Sb,3,K3SbS4
0.0,K-Sc,2,K3Sc
3.2185,Br-K-Sc,3,K3ScBr6
4.0074,Cl-K-Sc,3,K3ScCl6
6.1606000000000005,F-K-Sc,3,K3ScF6
2.3346,I-K-Sc,3,K3ScI6
3.6378,K-O-Sc-Si,4,K3ScSi2O7
3.0893,K-O-Sc-V,4,K3ScV2O8
3.8658,F-K-O-Se,4,K3SeO4F
0.0,K-Si,2,K3Si
2.2395000000000005,K-N-Si,3,K3Si3N5
5.9294,F-K-Si,3,K3SiF7
3.38,F-K-N-O-Si,5,K3SiN(OF2)3
0.0,K-Sm,2,K3Sm
5.0138,K-O-P-Sm,4,K3Sm(PO4)2
4.6072,Cl-K-Sm,3,K3SmCl6
4.9524,F-K-Sm,3,K3SmF6
5.7545,F-K-Sm,3,K3SmF6
0.0006999999999999,K-N-Sm,3,K3SmN6
0.0,K-Sn,2,K3Sn
5.1576,F-H-K-Sn,4,K3SnHF8
3.2434000000000003,C-K-O-P-Sn,5,K3SnPCO7
0.0229999999999996,K-Sb-Sn,3,K3SnSb3
0.0,K-Sr,2,K3Sr
4.153499999999999,C-K-O-P-Sr,5,K3SrPCO7
0.0,K-Ta,2,K3Ta
2.6703,B-K-O-Ta,4,K3Ta3(BO6)2
0.0,Br-K-Ta,3,K3TaBr6
0.0,Cl-K-Ta,3,K3TaCl6
0.0,F-K-Ta,3,K3TaF6
3.8497,F-K-Ta,3,K3TaF8
0.0,I-K-Ta,3,K3TaI6
3.04,K-O-Ta,3,K3TaO8
0.0,K-Tb,2,K3Tb
3.2054,B-K-O-Tb,4,K3Tb(BO3)2
4.6505,Cl-K-Tb,3,K3TbCl6
5.098599999999999,F-K-Tb,3,K3TbF6
6.6915,F-K-Tb,3,K3TbF6
0.0,K-Tc,2,K3Tc
2.1296,C-K-N-O-Tc,5,K3TcC4(N2O)2
0.0,K-Th,2,K3Th
0.0,K-Ti,2,K3Ti
0.0,K-O-Si-Ti,4,K3Ti4Si3O20
0.0,K-O-Ti,3,K3Ti8O17
0.0,F-K-Ti,3,K3TiF6
2.5471,F-K-O-Ti,4,K3TiO4F3
0.0,K-Tl,2,K3Tl
0.0,Au-K-Tl,3,K3TlAu5
1.3981,Br-K-Tl,3,K3TlBr6
2.1932,Cl-K-Tl,3,K3TlCl6
3.7204,F-K-Tl,3,K3TlF6
0.0,C-K-O-P-Tl,5,K3TlPCO7
0.0,K-Tm,2,K3Tm
5.1379,K-O-P-Tm,4,K3Tm(PO4)2
4.6853,Cl-K-Tm,3,K3TmCl6
6.0112000000000005,F-K-Tm,3,K3TmF6
5.2542,F-K-Tm,3,K3TmF6
6.7339,F-K-Tm,3,K3TmF6
3.4169,K-O-Tm-V,4,K3TmV2O8
0.0,K-U,2,K3U
0.0,F-K-U,3,K3UF3
0.0,F-K-U,3,K3UF6
0.0,K-V,2,K3V
1.5456,K-O-V,3,K3V3O8
2.2837,K-O-V,3,K3V5O14
2.4179,C-K-O-V,4,K3VCO8
0.0,F-K-V,3,K3VF6
3.6294,K-O-V,3,K3VO4
1.4953,K-O-V,3,K3VO8
2.3245,C-K-O-P-V,5,K3VPCO7
3.1383,K-O-S-V,4,K3VSO3
1.0358,K-Se-V,3,K3VSe4
0.0,K-W,2,K3W
2.8446,F-K-W,3,K3WF6
0.0,K-Y,2,K3Y
3.1826,B-K-O-Y,4,K3Y(BO3)2
3.8147,Br-K-Y,3,K3YBr6
4.4246,Cl-K-Y,3,K3YCl6
5.8597,F-K-Y,3,K3YF6
6.459300000000001,F-K-Y,3,K3YF6
1.5764000000000002,K-Mg-O-V-Y,5,K3YMgV2O8
0.0,K-N-Y,3,K3YN6
3.4086,K-O-V-Y,4,K3YV2O8
0.0,K-Zn,2,K3Zn
4.0269,F-K-Zn,3,K3Zn2F7
3.7128,H-K-Zn,3,K3ZnH5
3.8609,C-K-O-P-Zn,5,K3ZnPCO7
0.0,K-Zr,2,K3Zr
0.6912999999999999,K-Ni-O,3,K4(NiO2)3
0.0,Ba-K-Nb-O,4,K4BaNb5O15
2.0699,Ba-K-O-U,4,K4BaU3O12
1.9898,Ba-K-O-U,4,K4BaU3O12
3.2353,Be-K-O,3,K4Be3O5
0.8851000000000001,As-Be-K,3,K4BeAs2
1.1361,Be-K-P,3,K4BeP2
2.6155,Bi-K-O,3,K4Bi2O5
0.9912,Br-K-O,3,K4Br2O
0.0,C-K,2,K4C
0.0,C-K-O,3,K4C2O3
0.0,C-K-O,3,K4C2O9
0.0254999999999999,C-K-O,3,K4CO4
2.3359,C-K-O,3,K4CO4
1.9637,C-K-O,3,K4CO4
1.7898,C-K-O,3,K4CO4
1.4363,C-K-O,3,K4CO4
2.5012,C-K-O,3,K4CO4
0.908,C-K-O,3,K4CO4
1.6002,C-K-O,3,K4CO4
2.5753000000000004,C-K-O,3,K4CO4
2.0567,C-K-O,3,K4CO4
2.9688,C-K-O,3,K4CO4
2.5269,C-K-O,3,K4CO4
0.1431,C-K-O,3,K4CO6
2.4664,Ca-K-O-W,4,K4Ca(WO4)3
2.1025,Ca-K-O-U,4,K4CaU3O12
0.215,Cd-K-O-P,4,K4Cd(P3O10)2
0.6091000000000001,As-Cd-K,3,K4CdAs2
0.8246,Cd-K-P,3,K4CdP2
0.0,Cr-K-O,3,K4CrO4
0.0,Eu-Ge-K-O-U,5,K4Eu2U(GeO4)4
0.7339000000000001,Fe-K-O,3,K4Fe2O5
2.7032,C-F-Gd-K-O,5,K4Gd2C3O9F4
0.0,Au-Ge-K,3,K4Ge2Au7
2.7733,Ge-K-O,3,K4GeO4
0.0,H-K-O-Se,4,K4H5(SeO4)4
3.274,Hf-K-O,3,K4Hf5O12
2.9052,Hf-K-O,3,K4HfO4
0.6976000000000001,As-Hg-K,3,K4HgAs2
0.9356,Hg-K-P,3,K4HgP2
1.2568,I-K-O,3,K4I2O
0.4281999999999999,Ir-K-O,3,K4IrO4
0.0,C-K-Li-O,4,K4Li(CO3)2
0.0,K-Li-Mn-O,4,K4LiMn4O8
1.4842000000000002,K-Mg-Mo-O,4,K4Mg(MoO4)2
1.5548000000000002,K-Mg-Mo-O,4,K4Mg(MoO4)2
0.0494000000000003,K-Mg-S-Ti,4,K4Mg(TiS3)2
0.3571,K-Mg-S-Ti,4,K4Mg(TiS3)2
1.3139,K-Mg-O-W,4,K4Mg(WO4)2
0.0,Cu-F-K-Mg,4,K4MgCu3F12
0.0,K-Mg-Mn-O,4,K4MgMn4O8
0.9696000000000002,K-Mg-Mn-O,4,K4MgMn4O8
0.8820999999999999,K-Mg-Mn-O,4,K4MgMn4O8
1.5108,K-Mg-Mo-O-S,5,K4MgMo2(SO3)2
1.6681,K-Mg-Mo-O-S,5,K4MgMo2(SO3)2
0.0,Ag-K-Mg-Nb-S,5,K4MgNb2(AgS4)2
0.0,Cu-K-Mg-Nb-S,5,K4MgNb2(CuS4)2
0.0148000000000001,Cu-K-Mg-Nb-S,5,K4MgNb2(CuS4)2
0.2979,Cl-K-Mg-O-Ru,5,K4MgRu2(Cl5O)2
0.4948999999999999,K-Mg-O-Ti,4,K4MgTi2O6
0.5099,K-Mg-O-Ti,4,K4MgTi2O6
0.0,Ag-K-Mg-S-V,5,K4MgV2(AgS4)2
0.0,Cu-K-Mg-S-V,5,K4MgV2(CuS4)2
1.0518999999999998,K-Mg-O-V,4,K4MgV2O7
1.4462,K-Mg-O-V,4,K4MgV2O7
1.2805,K-Mg-O-V,4,K4MgV2O7
0.7824,K-Mg-O-V,4,K4MgV4O10
0.7541000000000002,K-Mg-O-V,4,K4MgV4O10
1.0277999999999998,K-Mg-O-V,4,K4MgV6O16
0.7402,K-Mg-O-V,4,K4MgV6O16
0.5764999999999998,K-Mg-O-V,4,K4MgV6O16
1.0113,K-Mg-O-V,4,K4MgV6O16
0.0484,K-Mg-O-V,4,K4MgV6O16
2.3906,Cl-K-Mn,3,K4MnCl6
0.5692999999999999,K-Mo-O,3,K4MoO8
4.4095,K-Mo-O-W,4,K4MoWO8
0.0,K-N-O,3,K4N2O5
0.1438000000000001,K-N-O,3,K4N2O5
0.0,K-N-O,3,K4NO
4.0785,F-Fe-H-K-Na,5,K4Na2FeH3F12
0.3853999999999997,Fe-K-Mg-Na-O,5,K4Na2Mg(FeO3)2
2.1937,K-Na-O-Te,4,K4Na2TeO6
4.5971,Cl-K-Na,3,K4NaCl5
5.0019,Cl-K-Na,3,K4NaCl5
4.8944,Cl-K-Na,3,K4NaCl5
4.9984,Cl-K-Na,3,K4NaCl5
4.9787,Cl-K-Na,3,K4NaCl5
3.7435,K-O-P,3,K4P2O7
1.7116,K-P-Pd-S,4,K4P2PdS8
0.0,K-P,2,K4P3
5.2584,H-K-O-P-S,5,K4PH5S3O16
3.7688,H-K-O-P-Se,5,K4PH5Se3O16
0.0814999999999999,K-O-P-Se,4,K4PSe3O16
1.7002000000000002,K-O-Pb,3,K4PbO4
0.1336999999999999,Cl-K-O-Re,4,K4Re2Cl10O
0.1768999999999998,Cl-H-K-O-Re,5,K4Re2HCl10O
2.3638,K-N-O-Ru,4,K4Ru(NO2)6
0.3968,Cl-K-O-Ru,4,K4Ru2Cl10O
0.4352999999999998,K-O-Sb,3,K4Sb2O5
2.3423,K-O-Sn,3,K4SnO4
4.0907,F-K-Sb-Sn,4,K4SnSb2F14
2.0683,K-O-Sr-U,4,K4SrU3O12
1.936,K-Nb-O-Ta,4,K4Ta3NbO12
3.1646,K-O-Ti,3,K4TiO4
3.1456,K-O-Ti,3,K4TiO4
2.1712,K-O-U,3,K4UO5
3.4405,K-O-V,3,K4V2O7
2.1279,Cd-Cl-K-O-V,5,K4V5CdClO15
0.2673,Cl-Cu-K-O-V,5,K4V5CuClO15
1.184,Cl-K-O-W,4,K4W2Cl10O
0.725,As-K-Zn,3,K4ZnAs2
0.9455,K-P-Zn,3,K4ZnP2
3.1900000000000004,K-O-Zr,3,K4Zr5O12
2.9118,K-O-Zr,3,K4ZrO4
0.0,C-K-N,3,K5(CN2)3
0.0,As-K,2,K5As4
0.0,Bi-K,2,K5Bi4
4.3857,Br-Cl-K,3,K5Br4Cl
4.5336,Br-Cl-K,3,K5BrCl4
1.1172,Br-C-K,3,K5C4Br
0.7465000000000002,Cu-K-Sb,3,K5CuSb2
4.6591000000000005,F-K-La-O-Si,5,K5La4Si4O16F
0.8609,C-K-Mo-N-O,5,K5MoC7N7O
0.0,K-N-O,3,K5NO4
4.3782,K-Mo-Na-O,4,K5Na3(MoO4)4
1.7548,C-K-N-Nb,4,K5Nb(CN)8
5.0433,F-K-O-Pr-Si,5,K5Pr4Si4O16F
0.0,K-Sb,2,K5Sb4
3.8758,K-Mo-O-Sm,4,K5Sm(MoO4)4
1.5819,Cd-K-O,3,K6CdO4
1.0219000000000005,Cr-K-O,3,K6Cr2O9
0.5214999999999999,Cu-K-O-Si,4,K6Cu(SiO4)2
1.1969,Fe-K-O,3,K6Fe2O5
1.0287,Bi-K-Mg-O,4,K6Mg(BiO4)2
1.2262999999999995,Bi-K-Mg-O,4,K6Mg(BiO4)2
1.474,Bi-K-Mg-O,4,K6Mg(BiO4)2
1.1503,Fe-K-Mg-O,4,K6Mg(FeO3)2
2.1648,K-Mg-O-Sb,4,K6Mg(SbO4)2
2.3223,K-Mg-O-Sb,4,K6Mg(SbO4)2
0.8815,Cr-K-Mg-O,4,K6MgCr2O8
0.4564999999999999,Cu-K-Mg-O-Si,5,K6MgCu(SiO4)2
1.6783,K-Mg-O,3,K6MgO4
1.0608000000000002,K-Mg-O-S-V,5,K6MgV2(SO3)2
1.0975,K-Mg-O-S-V,5,K6MgV2(SO3)2
1.4630000000000003,K-Mg-O-S-V,5,K6MgV2(SO3)2
0.8855,K-Mo-N,3,K6MoN4
0.8245,K-N-W,3,K6WN4
0.0,As-K-O,3,K8AsO3
0.0,Bi-K-O,3,K8BiO3
1.3462,K-Mg-O-Ti,4,K8MgTi2O8
0.3530999999999999,K-Mg-O-Ti,4,K8MgTi2O8
0.0,K-N-O,3,K8N3O
0.0,K-N-O,3,K8NO3
0.0,K-O-P,3,K8PO3
0.0,K-O-Sb,3,K8SbO3
0.0,Ac-K,2,KAc3
0.0,Ac-K-O,3,KAcO3
0.8620999999999999,Ac-K-Te,3,KAcTe2
0.0,Ag-K,2,KAg2
0.2116,Ag-As-K-O,4,KAg2AsO4
1.2441,Ag-K-P-S,4,KAg2PS4
0.5695999999999999,Ag-K-S-Sb,4,KAg2SbS4
0.0041999999999999,Ag-K-Se,3,KAg3Se2
0.2536,Ag-K-Te,3,KAg3Te2
0.0,Ag-K-Te,3,KAg3Te2
0.0,Ag-Br-K,3,KAgBr3
2.4769,Ag-C-K,3,KAgC2
1.5675,Ag-C-K-O,4,KAgCO3
2.2257,Ag-C-K-O,4,KAgCO3
1.5687000000000002,Ag-C-K-O,4,KAgCO3
0.0,Ag-Cl-K,3,KAgCl3
0.0,Ag-F-K,3,KAgF3
1.7377999999999998,Ag-F-K,3,KAgF4
0.0,Ag-K-O,3,KAgO
1.4858,Ag-K-O,3,KAgO
0.6151,Ag-K-O,3,KAgO2
0.9659,Ag-K-O,3,KAgO2
1.1904,Ag-K-O,3,KAgO2
0.0,Ag-K-O,3,KAgO3
0.4821999999999999,Ag-K-Se,3,KAgSe
6.646599999999999,Al-B-H-K,4,KAl(BH4)4
0.2200999999999999,Al-H-K-N,4,KAl(H2N)4
3.8895,Al-K-Mo-O,4,KAl(MoO4)2
5.5112000000000005,Al-K-O-S,4,KAl(SO4)2
5.540900000000001,Al-K-O-S,4,KAl(SO4)2
0.0,Al-K-O-Si,4,KAl(SiO3)3
4.6159,Al-K-O,3,KAl11O17
1.0188,Al-K-O-Si,4,KAl2(SiO3)4
0.0,Al-H-K-O-Si,5,KAl2Si4(HO6)2
0.0,Al-K-O-S,4,KAl3(SO7)2
2.9985,Al-K-O-Si,4,KAl3(SiO4)3
3.5502,Al-Fe-H-K-O-Si,6,KAl3Fe2Si2(HO6)2
4.5629,Al-H-K-O-Si,5,KAl3Si3(HO6)2
1.3491000000000002,Al-Fe-H-K-O,5,KAl4Fe3(HO6)2
3.0428,Al-As-K-O,4,KAlAs2O7
0.0,Al-C-K-O,4,KAlCO5
4.302,Al-Cl-K-O,4,KAlCl2O
2.6524,Al-Co-H-K-O-Si,6,KAlCo3Si3(HO6)2
1.2993,Al-Cr-H-K-O,5,KAlCr2(HO4)2
0.0,Al-Cr-K-O,4,KAlCr2O10
0.0809,Al-Cu-F-K,4,KAlCuF6
6.9377,Al-F-K,3,KAlF4
6.7929,Al-F-K,3,KAlF4
6.9087,Al-F-K,3,KAlF4
0.0,Al-F-Fe-K,4,KAlFe2F2
5.0845,Al-C-H-K-O,5,KAlH2CO5
0.0,Al-H-K,3,KAlH3
5.0652,Al-H-K,3,KAlH4
4.8048,Al-H-K,3,KAlH4
0.0903999999999999,Al-K-N,3,KAlN4
5.4566,Al-F-K-Ni,4,KAlNiF6
0.1777999999999995,Al-K-O,3,KAlO
2.9467,Al-K-O,3,KAlO2
3.7538,Al-K-O,3,KAlO2
0.0,Al-K-O,3,KAlO3
5.662599999999999,Al-H-K-O-P,5,KAlP4(H2O7)2
3.2453,Al-H-K-Ni-O-Si,6,KAlSi3Ni3(HO6)2
5.4583,Al-K-O-Si,4,KAlSi3O8
4.7471000000000005,Al-K-O-Si,4,KAlSi3O8
4.9275,Al-K-O-Si,4,KAlSi3O8
4.924300000000001,Al-K-O-Si,4,KAlSi3O8
4.5177,Al-K-O-Si,4,KAlSiO4
2.6927000000000003,Al-K-O-Si,4,KAlSiO4
4.5021,Al-K-O-Si,4,KAlSiO4
4.501,Al-K-O-Si,4,KAlSiO4
1.7037,Al-K-Te,3,KAlTe2
0.0,As-K,2,KAs
4.3888,As-H-K-O,4,KAs(HO2)2
4.134399999999999,As-H-K-O,4,KAs(HO2)2
0.4979,As-F-K-O,4,KAs(OF2)2
0.6393,As-F-K-O,4,KAs(OF2)2
0.0,As-K-Rh,3,KAs2Rh
2.7809,As-H-K-O,4,KAs4(HO4)3
2.7387,As-Br-K-O,4,KAs4BrO6
3.0749000000000004,As-Cl-K-O,4,KAs4ClO6
2.3379000000000003,As-I-K-O,4,KAs4IO6
4.9494,As-F-K,3,KAsF6
4.8371,As-F-K,3,KAsF6
3.8449,As-K-O,3,KAsO2
3.3848000000000003,As-K-O,3,KAsO3
0.0,As-K-O,3,KAsO3
0.6339,As-K-O,3,KAsO4
3.7394,As-F-K-O,4,KAsOF4
2.9528,Au-C-K-N,4,KAu(CN)2
2.1171999999999995,Au-I-K-O,4,KAu(IO3)4
2.1181,Au-I-K-O,4,KAu(IO3)4
1.46,Au-K-O-S,4,KAu(SO4)2
0.0,Au-K,2,KAu2
0.0,Au-K,2,KAu5
0.0,Au-Br-K,3,KAuBr3
2.0249,Au-C-K,3,KAuC2
0.0285000000000001,Au-C-Cl-K-N-O,6,KAuC2N2Cl2O
0.0,Au-Cl-K,3,KAuCl3
0.0,Au-F-K,3,KAuF3
2.3647,Au-F-K,3,KAuF4
2.1117,Au-F-K,3,KAuF6
1.4624,Au-K-N,3,KAuN12
1.0922999999999998,Au-K-O,3,KAuO2
1.4264,Au-K-O,3,KAuO2
0.0,Au-K-O,3,KAuO3
2.1003000000000003,Au-K-S,3,KAuS
1.816,Au-K-Se,3,KAuSe
0.8850000000000002,Au-K-Se,3,KAuSe2
0.0,B-K,2,KB
6.237,B-C-K-N,4,KB(CN)4
3.2605,B-C-K-O,4,KB(CO2)4
2.9208000000000007,B-K-O-Sb,4,KB2SbO6
5.7643,B-K-O,3,KB3O5
0.0,B-K,2,KB6
5.729,B-C-F-K-N,5,KBC3N3F
7.9399,B-F-K,3,KBF4
7.316699999999999,B-F-K,3,KBF4