eg,chemsys,nelements,formula
2.2301,Cl-Cs-I,3,CsICl2
3.0912,Cs-I-O,3,CsIO3
0.0,Cs-I-O,3,CsIO3
0.0,Cs-Cu-In-O,4,CsIn(Cu3O4)2
0.0463,Cs-In-O-S,4,CsIn(SO5)2
0.9025,Cs-In-O-Se,4,CsIn(SeO5)2
0.0,Cs-In,2,CsIn3
1.2724999999999995,Cs-In-S,3,CsIn5S8
0.0,Ag-Cs-F-In,4,CsInAgF6
1.3782,Br-Cs-In,3,CsInBr3
0.0,Br-Cs-In,3,CsInBr3
1.7756999999999998,Cl-Cs-In,3,CsInCl3
0.5897999999999999,Cs-Cu-In-O-P,5,CsInCu(PO3)6
0.0,Cs-Cu-F-In,4,CsInCuF6
3.0609,Cs-F-In,3,CsInF3
0.0,Cs-F-In,3,CsInF3
0.0564999999999999,Cs-I-In,3,CsInI3
0.0,Cs-I-In,3,CsInI3
1.9381,Cs-In-O,3,CsInO2
3.066,Cs-In-O-Te,4,CsInTe3O8
0.0,Cs-Ir,2,CsIr
0.0,Cs-Ir-O,3,CsIrO3
0.0,Cs-K,2,CsK
5.5307,Cl-Cs-K-O,4,CsK(ClO4)2
0.0,Cs-Fe-K-S,4,CsK(Fe2S3)2
3.2978,Al-Br-Cs-K,4,CsK2AlBr6
4.3064,Al-Cl-Cs-K,4,CsK2AlCl6
5.617900000000001,Al-Cs-F-K,4,CsK2AlF6
0.7081999999999999,As-Cs-K,3,CsK2As
2.9226,As-Br-Cs-K,4,CsK2AsBr6
3.4978,As-Cl-Cs-K,4,CsK2AsCl6
3.5457,As-Cs-F-K,4,CsK2AsF6
0.6961999999999999,Au-Cs-F-K,4,CsK2AuF6
0.3009999999999999,Bi-Cs-K,3,CsK2Bi
3.6673,Cl-Cs-Ga-K,4,CsK2GaCl6
5.3211,Cs-F-Ga-K,4,CsK2GaF6
4.8718,Cs-Ho-K-O-P,5,CsK2Ho(PO4)2
3.7817,Cl-Cs-In-K,4,CsK2InCl6
4.7905,Cs-F-In-K,4,CsK2InF6
2.0177,Cs-F-Ir-K,4,CsK2IrF6
3.7121,Cs-K-La-O-V,5,CsK2LaV2O8
2.8022,Cs-F-K-Mo,4,CsK2MoF6
0.0,Cs-F-K-Nb,4,CsK2NbF6
1.8661,Cs-F-K-Pd,4,CsK2PdF5
0.0,Cs-F-K-Pd,4,CsK2PdF6
0.0,Cs-K-Pt,3,CsK2Pt
0.0,Cs-K-Rb,3,CsK2Rb
1.66,Cs-F-K-Ru,4,CsK2RuF6
0.8633999999999997,Cs-K-Sb,3,CsK2Sb
3.1654,Cl-Cs-K-Sb,4,CsK2SbCl6
3.1372,Cs-F-K-Sb,4,CsK2SbF6
4.0983,Cs-K-O-P-Sc,5,CsK2Sc(PO4)2
4.0703,Cl-Cs-K-Sc,4,CsK2ScCl6
5.6381,Cs-F-K-Sc,4,CsK2ScF6
0.0,Cs-F-K-Ta,4,CsK2TaF6
0.0,Cs-F-K-Ti,4,CsK2TiF6
3.584,Cs-F-K-Tl,4,CsK2TlF6
0.0,Cs-F-K-V,4,CsK2VF6
5.2336,Cs-F-K-Y,4,CsK2YF6
0.0,Cs-K,2,CsK3
3.4731,C-Cs-K,3,CsKC2
4.0996,Cl-Cs-I-K,4,CsKICl
0.0,Cs-K-Mg,3,CsKMg14
1.4250999999999996,Cs-K-Mg-O,4,CsKMg14O15
2.1985,Cs-K-Mg-O,4,CsKMg14O15
0.0,Cs-K-Mg,3,CsKMg6
1.1959,Cs-K-Mg-O,4,CsKMg6O7
4.722099999999999,Cs-K-Li-Na-O-Si,6,CsKNa2Li12(SiO4)4
0.0,Cs-K-O,3,CsKO3
0.0,Cs-K-Rb,3,CsKRb2
0.0,Cs-La,2,CsLa
3.3379000000000003,Cs-La-Mo-O,4,CsLa(MoO4)2
3.6495,Cs-La-O-W,4,CsLa(WO4)2
1.0753999999999997,Cs-Cu-La-Se,4,CsLa2CuSe4
2.3296,Cs-La-O-Ta-Ti,5,CsLa2TaTi2O10
1.5818999999999996,Cs-La-Nb-O-Ti,5,CsLa2Ti2NbO10
0.0,Cs-La,2,CsLa3
1.7300999999999995,Cd-Cs-La-Te,4,CsLaCdTe3
1.4545,Cs-Hg-La-Se,4,CsLaHgSe3
0.0,Cs-La-Mg,3,CsLaMg14
0.0,Cs-La-Mg-O,4,CsLaMg14O16
0.0,Cs-La-Mg,3,CsLaMg6
0.0,Cs-La-Mg-O,4,CsLaMg6O8
0.0,Cs-La-Mg-Nb-O,5,CsLaMgNb2O7
1.4413999999999998,Cs-La-Nb-O,4,CsLaNb2O7
2.9322,Cs-La-O,3,CsLaO2
0.0,Cs-La-O,3,CsLaO3
2.5035,Cs-La-S,3,CsLaS2
0.0,Cs-La-W,3,CsLaW2
1.5873999999999997,Cs-La-Te-Zn,4,CsLaZnTe3
1.997,Cs-H-Li-N,4,CsLi(H2N)2
0.6641000000000001,Cs-H-Li-N,4,CsLi2(H2N)3
3.6914,Cs-H-Li-O,4,CsLi2(HO)3
3.9995,Cs-H-Li-O,4,CsLi2(HO)3
4.1415,Cs-H-Li-O,4,CsLi2(HO)3
4.2829,Br-Cs-Li,3,CsLi2Br3
0.0,C-Cs-Li,3,CsLi2C
5.2393,Cl-Cs-Li,3,CsLi2Cl3
7.0403,Cs-F-Li,3,CsLi2F3
4.4204,Cs-I-Li,3,CsLi2I3
4.1475,Br-Cs-Li,3,CsLi3Br4
5.2744,Cl-Cs-Li,3,CsLi3Cl4
6.7384,Cs-F-Li,3,CsLi3F4
3.9878,B-Cs-Li-O,4,CsLi5(BO3)2
2.4418,Cs-Li-Ni-O,4,CsLi7(NiO3)2
0.0,Ac-Cs-Li-O,4,CsLiAcO3
7.0366,Be-Cs-F-Li,4,CsLiBeF4
4.1375,Br-Cs-Li,3,CsLiBr2
5.1073,Cl-Cs-Li,3,CsLiCl2
5.0329,Cl-Cs-Li,3,CsLiCl2
6.2744,Cs-F-Li,3,CsLiF2
5.5265,Cs-H-Li-N-O-S,6,CsLiH4S2(NO3)2
4.3863,Cs-H-Li-O-S,5,CsLiH4SO5
0.0,Cs-H-Li-O-S-W,6,CsLiH4W2SO3
3.3604000000000003,Cl-Cs-I-Li,4,CsLiICl
0.0,Cs-Li-Mg,3,CsLiMg14
2.3341000000000003,Cs-Li-Mg-O,4,CsLiMg14O15
1.1774999999999998,Cs-Li-Mg-O,4,CsLiMg14O15
0.0,Cs-Li-Mg,3,CsLiMg6
1.873,Cs-Li-Mg-O,4,CsLiMg6O7
0.7793000000000001,Cs-Li-Mg-O,4,CsLiMg6O7
0.0,Cs-Li-Mg-O,4,CsLiMg6O7
0.8092999999999999,Cs-Li-Mn-S,4,CsLiMnS2
4.424,Cs-Li-Mo-O,4,CsLiMoO4
0.0,Cs-Li-N,3,CsLiN2
2.3972,Cs-Li-O,3,CsLiO
1.6344000000000003,Cs-Li-O,3,CsLiO
5.1673,Cs-Li-O-S,4,CsLiSO4
5.378,Cs-Li-O-S,4,CsLiSO4
0.0956000000000001,Cs-Li-O-P-Ta,5,CsLiTa(PO4)2
0.1624000000000003,Cs-Li-O-P-Ta,5,CsLiTa(PO4)2
4.4294,Cs-Li-O-W,4,CsLiWO4
2.5019,Cs-Li-S-Zn,4,CsLiZnS2
3.746,Cs-Lu-Mo-O,4,CsLu(MoO4)2
2.9075,Cs-Lu-Mo-O,4,CsLu(MoO4)2
3.5298,Cs-Lu-Mo-O,4,CsLu(MoO4)2
5.3528,Cs-Lu-O-S,4,CsLu(SO4)2
1.5415,Cd-Cs-Lu-Te,4,CsLuCdTe3
2.2447000000000004,Cs-Lu-S,3,CsLuS2
2.1698,Cs-Lu-S,3,CsLuS2
0.0,Al-Cs-Mg,3,CsMg14Al
0.0,Al-Cs-Mg-O,4,CsMg14AlO16
0.456100000000001,Al-Cs-Mg-O,4,CsMg14AlO16
0.0,B-Cs-Mg,3,CsMg14B
0.0853999999999999,B-Cs-Mg-O,4,CsMg14BO15
0.0,B-Cs-Mg-O,4,CsMg14BO16
0.0,Bi-Cs-Mg,3,CsMg14Bi
0.0,Bi-Cs-Mg-O,4,CsMg14BiO16
0.0,C-Cs-Mg,3,CsMg14C
0.0,Cd-Cs-Mg,3,CsMg14Cd
0.0,Co-Cs-Mg,3,CsMg14Co
0.0,Cr-Cs-Mg,3,CsMg14Cr
0.0,Cr-Cs-Mg-O,4,CsMg14CrO16
0.0,Cs-Cu-Mg,3,CsMg14Cu
0.0,Cs-Fe-Mg,3,CsMg14Fe
0.0,Cs-Fe-Mg-O,4,CsMg14FeO16
0.0,Cs-Ga-Mg,3,CsMg14Ga
0.0,Cs-Ga-Mg-O,4,CsMg14GaO16
0.3205,Cs-Ga-Mg-O,4,CsMg14GaO16
0.0,Cs-Mg-Mn,3,CsMg14Mn
0.7978000000000005,Cs-Mg-Mn-O,4,CsMg14MnO16
0.3283999999999993,Cs-Mg-Mn-O,4,CsMg14MnO16
0.0,Cs-Mg-Mo,3,CsMg14Mo
0.0,Cs-Mg-Nb,3,CsMg14Nb
0.0,Cs-Mg-Ni,3,CsMg14Ni
0.0,Cs-Mg-Sb,3,CsMg14Sb
0.0,Cs-Mg-O-Sb,4,CsMg14SbO16
0.0,Cs-Mg-Si,3,CsMg14Si
0.0,Cs-Mg-O-Si,4,CsMg14SiO16
0.0,Cs-Mg-Sn,3,CsMg14Sn
0.0,Cs-Mg-Ti,3,CsMg14Ti
0.0,Cs-Mg-O-Ti,4,CsMg14TiO16
0.0,Cs-Mg-V,3,CsMg14V
0.0,Cs-Mg-W,3,CsMg14W
0.0,Cs-Mg-O-W,4,CsMg14WO16
0.0,Cs-Mg-Zn,3,CsMg14Zn
0.0,Cs-Mg-Zr,3,CsMg14Zr
0.0,Cs-Mg,2,CsMg15
0.0,Cs-Mg,2,CsMg3
0.0,Al-Cs-Mg,3,CsMg6Al
0.0,Al-Cs-Mg-O,4,CsMg6AlO8
0.2268999999999996,Al-Cs-Mg-O,4,CsMg6AlO8
0.0,B-Cs-Mg,3,CsMg6B
1.5829,B-Cs-Mg-O,4,CsMg6BO7
0.9522000000000004,B-Cs-Mg-O,4,CsMg6BO7
1.8313,B-Cs-Mg-O,4,CsMg6BO7
0.0,B-Cs-Mg-O,4,CsMg6BO8
0.6152999999999995,B-Cs-Mg-O,4,CsMg6BO8
0.0,Bi-Cs-Mg,3,CsMg6Bi
0.0,Bi-Cs-Mg-O,4,CsMg6BiO8
0.0,C-Cs-Mg,3,CsMg6C
0.0,C-Cs-Mg-O,4,CsMg6CO8
0.0,Cd-Cs-Mg,3,CsMg6Cd
0.0,Co-Cs-Mg,3,CsMg6Co
0.0,Co-Cs-Mg-O,4,CsMg6CoO8
0.0,Cr-Cs-Mg,3,CsMg6Cr
0.0,Cr-Cs-Mg-O,4,CsMg6CrO8
0.0,Cs-Cu-Mg,3,CsMg6Cu
0.0,Cs-Fe-Mg,3,CsMg6Fe
0.0,Cs-Ga-Mg,3,CsMg6Ga
0.0,Cs-Ga-Mg-O,4,CsMg6GaO8
0.0,Cs-Mg-Mn,3,CsMg6Mn
0.0,Cs-Mg-Mo,3,CsMg6Mo
0.0,Cs-Mg-Nb,3,CsMg6Nb
0.0,Cs-Mg-Ni,3,CsMg6Ni
0.0,Cs-Mg-Sb,3,CsMg6Sb
0.0,Cs-Mg-O-Sb,4,CsMg6SbO8
0.0,Cs-Mg-Si,3,CsMg6Si
0.0,Cs-Mg-O-Si,4,CsMg6SiO8
0.2986000000000004,Cs-Mg-O-Si,4,CsMg6SiO8
0.0,Cs-Mg-Sn,3,CsMg6Sn
0.0,Cs-Mg-Ti,3,CsMg6Ti
0.0,Cs-Mg-V,3,CsMg6V
0.0,Cs-Mg-W,3,CsMg6W
0.0,Cs-Mg-O-W,4,CsMg6WO8
0.0,Cs-Mg-Zn,3,CsMg6Zn
0.0,Cs-Mg,2,CsMg7
0.3932000000000002,Al-Cs-Mg-Mo-O,5,CsMgAl(MoO4)2
0.0,Al-Cs-Mg-Mo-O,5,CsMgAl(MoO4)2
6.8485,Al-Cs-F-Mg,4,CsMgAlF6
0.0,As-Cs-H-Mg-O,5,CsMgAs(H3O2)2
4.2896,As-Cs-H-Mg-O,5,CsMgAs(H6O5)2
0.0,Bi-Cs-Mg-O,4,CsMgBiO3
2.0847,Bi-Cs-Mg-O,4,CsMgBiO3
4.0445,Br-Cs-Mg,3,CsMgBr3
5.126099999999999,Cl-Cs-Mg,3,CsMgCl3
1.9747,Co-Cs-F-Mg,4,CsMgCoF6
6.7028,Cs-F-Mg,3,CsMgF3
1.6018,Cs-Fe-Mg-Mo-O,5,CsMgFe(MoO4)2
0.8174999999999999,Cs-Fe-Mg-O-S,5,CsMgFe(SO4)2
0.0,Cs-Fe-Mg-O-S,5,CsMgFe(SO4)2
3.4449,Cs-F-Fe-Mg,4,CsMgFeF6
5.6419,Cs-F-Ga-Mg,4,CsMgGaF6
2.6161000000000003,Cs-H-Mg,3,CsMgH3
3.152,Cs-I-Mg,3,CsMgI3
4.5677,Cs-F-In-Mg,4,CsMgInF6
0.2865999999999999,Cs-H-Mg-Mn-O-P,6,CsMgMnP3HO10
2.1389,Cs-H-Mg-Mn-O-P,6,CsMgMnP3HO10
0.3593000000000002,Cs-Mg-N,3,CsMgN
0.0,Cs-Mg-Nb-O-P,5,CsMgNb(PO4)2
0.3863999999999999,Cs-F-Mg-Ni,4,CsMgNiF6
0.0,Cs-Mg-O,3,CsMgO3
4.8246,Cs-H-Mg-O-P,5,CsMgP(H6O5)2
3.723,Cs-Mg-O-P-Sb,5,CsMgSb(PO4)2
1.1210000000000002,Cs-Mg-O-V,4,CsMgV2O5
0.0,C-Cs-Mn-N,4,CsMn(CN)3
0.3825000000000003,Cs-F-Mn-O,4,CsMn(OF2)2
0.3046999999999999,Cs-Mn-O-P,4,CsMn(PO3)6
0.0,Cs-Mn-O-P,4,CsMn2(PO3)6
1.8949,Cl-Cs-Mn-O-V,5,CsMn2V2ClO7
0.0,As-Cs-Mn,3,CsMnAs
0.0,Bi-Cs-Mn,3,CsMnBi
0.0,Br-Cs-Mn,3,CsMnBr3
1.4829,Cl-Cs-Mn,3,CsMnCl3
0.0,C-Cr-Cs-Mn-N,5,CsMnCr(CN)6
1.5958,Cr-Cs-F-Mn,4,CsMnCrF6
0.0921000000000002,Cs-Cu-Mn-Se,4,CsMnCu3Se4
0.0,Cs-Cu-F-Mn,4,CsMnCuF6
0.0994,Cs-F-Mn,3,CsMnF4
1.9524,Cs-F-Mn,3,CsMnF4
1.1137,Cs-F-Fe-Mn,4,CsMnFeF6
4.3098,Cs-H-Mn-O-S,5,CsMnH5(SO5)2
0.0,Cs-I-Mn,3,CsMnI3
0.0187999999999999,Cs-F-Mn-Mo-O,5,CsMnMo(OF)3
0.0,Cs-Mn-N,3,CsMnN
1.8635,Cs-Mn-O,3,CsMnO4
0.0,Cs-Mn-P,3,CsMnP
0.7102,Cs-H-Mn-O-P,5,CsMnP3HO10
0.0,Cs-Mn-Sb,3,CsMnSb
0.0,Cs-Mn-Se,3,CsMnSe2
0.0,Cs-Mn-Te,3,CsMnTe2
1.8989000000000005,Cs-F-Mn-V,4,CsMnVF6
0.0,C-Cs-Mo,3,CsMoC6
2.7732,Cs-Mo-N-O,4,CsMoN3O11
3.4234,Cs-F-Mo-O,4,CsMoO2F3
0.0,Cs-Mo-O,3,CsMoO3
0.0,Cs-N,2,CsN
0.0,Cs-N,2,CsN2
3.79,Cs-N,2,CsN3
4.2395,Cs-N,2,CsN3
2.3632,Cs-N-O,3,CsNO2
3.0919,Cs-N-O,3,CsNO3
3.2483,B-Cs-Na-O,4,CsNa2BO3
4.5093,B-Be-Cs-Na-O,5,CsNa2Be6(BO3)5
4.7662,Cl-Cs-H-Na-O,5,CsNa2H4Cl3O2
0.0,Cs-Na,2,CsNa3
3.7823,Cs-Ge-Li-Na-O,5,CsNa3Li12(GeO4)4
3.3196,C-Cs-Na,3,CsNaC2
0.0,Cs-F-Na,3,CsNaF3
0.0175,Cs-F-Na,3,CsNaF3
3.512,Cl-Cs-I-Na,4,CsNaICl
0.0,Cs-Mg-Na,3,CsNaMg14
2.7332999999999994,Cs-Mg-Na-O,4,CsNaMg14O15
1.1264999999999996,Cs-Mg-Na-O,4,CsNaMg14O15
2.4498999999999995,Cs-Mg-Na-O,4,CsNaMg14O15
0.0,Cs-Mg-Na,3,CsNaMg6
1.6193,Cs-Mg-Na-O,4,CsNaMg6O7
0.0,Cs-Mg-Na-O,4,CsNaMg6O7
0.0,Cs-Na-O,3,CsNaO3
2.4134,Cs-Na-S,3,CsNaS
2.027,Cs-Na-Se,3,CsNaSe
1.9696,Cs-Na-Te,3,CsNaTe
3.3618,Cs-Na-O-Ti,4,CsNaTiO3
3.2987,B-Cs-Nb-O,4,CsNb(BO3)2
2.5389,Cs-Nb-O-P,4,CsNb(PO4)2
2.4818,Bi-Cs-Nb-O,4,CsNb2BiO7
0.3015,C-Cs-Nb,3,CsNbC6
2.3321,Cl-Cs-Nb,3,CsNbCl6
5.2004,Cs-F-Nb,3,CsNbF6
1.5227999999999997,Cs-N-Nb,3,CsNbN2
3.0565,Cs-F-Nb-Ni-O,5,CsNbNi(OF2)2
1.2761999999999998,Cs-Nb-O,3,CsNbO3
2.8953,Cs-Nb-O-W,4,CsNbWO6
0.0,Cs-Nd,2,CsNd
3.6679,Cs-Mo-Nd-O,4,CsNd(MoO4)2
3.2476,Cs-Mo-Nd-O,4,CsNd(MoO4)2
3.6571,Cs-Mo-Nd-O,4,CsNd(MoO4)2
3.5051,Cs-Nd-O-W,4,CsNd(WO4)2
0.8344,Cs-Cu-Nd-Se,4,CsNd2CuSe4
1.5761999999999996,Cs-Nb-Nd-O-Ti,5,CsNd2Ti2NbO10
0.0,Cs-Nd,2,CsNd3
1.6224999999999996,Cs-Nd-Se,3,CsNd5Se8
1.5147000000000004,Cd-Cs-Nd-Te,4,CsNdCdTe3
1.3539,Cs-Hg-Nd-Se,4,CsNdHgSe3
2.3920000000000003,Cs-Nb-Nd-O,4,CsNdNb2O7
2.9366000000000003,Cs-Nd-O,3,CsNdO2
0.0,Cs-Nd-O,3,CsNdO3
2.2185,Cs-Nd-S,3,CsNdS2
2.1496,Cs-Nd-S,3,CsNdS2
1.2919999999999998,Cs-Nd-Te,3,CsNdTe2
1.3651,Cs-Nd-Te-Zn,4,CsNdZnTe3
0.9768,Cs-F-Ni,3,CsNi2F6
0.0,Cs-F-Ni,3,CsNi2F6
0.0,Br-Cs-Ni,3,CsNiBr3
0.8049000000000002,Cl-Cs-Ni,3,CsNiCl3
0.0,Cs-F-Ni,3,CsNiF3
4.7178,Cs-F-Ni,3,CsNiF3
5.3618,Cs-F-Ni,3,CsNiF3
4.3878,Cs-F-Ni,3,CsNiF3
0.0159000000000002,Cs-N-Ni,3,CsNiN
0.7766,Cs-N-Ni,3,CsNiN
0.4136999999999997,Cs-Ni-O,3,CsNiO2
0.0,Cs-Ni-P,3,CsNiP
0.5593,Cs-F-Ni-Pd,4,CsNiPdF5
0.0,Cs-Np,2,CsNp3
0.0762999999999998,Ag-Cs-Np-S,4,CsNpAgS3
0.0,Cs-Cu-Np-S,4,CsNpCuS3
0.0,Cs-Np-O,3,CsNpO3
0.0,Cs-O,2,CsO2
0.9415,Cs-O,2,CsO3
0.0,Cs-O-Os,3,CsOs2O9
0.0,Cs-O-Os,3,CsOsO3
5.1543,Cs-H-O-P,4,CsP(HO)2
5.1317,Cs-H-O-P,4,CsP(HO2)2
5.0373,Cs-H-O-P,4,CsP(HO2)2
5.201099999999999,Cs-H-O-P,4,CsP(HO2)2
5.1874,Cs-F-O-P,4,CsP(OF)2
5.861000000000001,Cs-H-O-P,4,CsP2(HO2)3
5.5122,Cs-H-O-P,4,CsP2H5O8
7.1409,Cs-F-P,3,CsPF6
5.1985,Cs-F-H-O-P,5,CsPHO3F
5.422300000000001,Cs-O-P,3,CsPO3
5.0865,Cs-O-P,3,CsPO3
0.0,Cs-O-P,3,CsPO4
2.5021,Cs-F-I-P-Pb,5,CsPPb(IF3)2
1.9062,Cs-P-S,3,CsPS3
0.0,Cs-Pa,2,CsPa3
2.9729999999999994,Cs-O-Pa,3,CsPaO3
3.5785,Cl-Cs-Pb,3,CsPb2Cl5
3.8164,Cl-Cs-Pb,3,CsPb2Cl5
0.0,Cs-Pb,2,CsPb3
1.8178,Br-Cs-Pb,3,CsPbBr3
1.955,Br-Cs-Pb,3,CsPbBr3
1.7819000000000005,Br-Cs-Pb,3,CsPbBr3
2.7365000000000004,Cl-Cs-Pb,3,CsPbCl3
2.1878,Cl-Cs-Pb,3,CsPbCl3
2.6799,Cl-Cs-Pb,3,CsPbCl3
2.413,Cl-Cs-Pb,3,CsPbCl3
3.3374,Cs-F-Pb,3,CsPbF3
2.908300000000001,Cs-F-Pb,3,CsPbF3
1.4384,Br-Cs-I-Pb,4,CsPbI2Br
1.4785,Cs-I-Pb,3,CsPbI3
0.0,Cs-O-Pb,3,CsPbO3
0.0,Cs-F-Pd,3,CsPd2F5
0.3719999999999999,Br-Cs-Pd,3,CsPdBr3
0.0,Br-Cs-Pd,3,CsPdBr3
0.0,Cl-Cs-Pd,3,CsPdCl3
0.0,Cs-F-Pd,3,CsPdF3
0.0,Cs-O-Pd,3,CsPdO3
0.0,Cs-Pm,2,CsPm
3.6994,Cs-Mo-O-Pr,4,CsPr(MoO4)2
3.5679,Cs-O-Pr-W,4,CsPr(WO4)2
1.5705,Cs-Nb-O-Pr-Ti,5,CsPr2Ti2NbO10
0.0,Cs-Pr,2,CsPr3
1.9664,Cd-Cs-Pr-Se,4,CsPrCdSe3
1.5231000000000003,Cd-Cs-Pr-Te,4,CsPrCdTe3
1.3367,Cs-Hg-Pr-Se,4,CsPrHgSe3
0.0,Cs-O-Pr,3,CsPrO3
2.2284,Cs-Pr-S,3,CsPrS2
2.1610000000000005,Cs-Pr-S,3,CsPrS2
1.3607,Cs-Pr-Te-Zn,4,CsPrZnTe3
1.0495,Cs-Pt-Se,3,CsPt2Se3
0.0,Cs-O-Pu,3,CsPuO3
0.0,Cs-Rb,2,CsRb
3.3521,Al-Br-Cs-Rb,4,CsRb2AlBr6
4.4662,Al-Cl-Cs-Rb,4,CsRb2AlCl6
5.8323,Al-Cs-F-Rb,4,CsRb2AlF6
2.9235,As-Br-Cs-Rb,4,CsRb2AsBr6
3.5025,As-Cl-Cs-Rb,4,CsRb2AsCl6
3.8491,As-Cs-F-Rb,4,CsRb2AsF6
0.0,Au-Cs-Rb,3,CsRb2Au7
0.0,Au-Br-Cs-Rb,4,CsRb2AuBr6
0.1722,Au-Cl-Cs-Rb,4,CsRb2AuCl6
0.6607999999999999,Au-Cs-F-Rb,4,CsRb2AuF6
0.1872,Bi-Cs-Rb,3,CsRb2Bi
4.1231,Bi-Cs-F-Rb,4,CsRb2BiF6
3.2035,Co-Cs-F-Rb,4,CsRb2CoF6
4.4591,Cl-Cs-Dy-Rb,4,CsRb2DyCl6
4.448,Cl-Cs-Er-Rb,4,CsRb2ErCl6
4.1741,Cs-F-Fe-Rb,4,CsRb2FeF6
2.3778,Br-Cs-Ga-Rb,4,CsRb2GaBr6
3.3928000000000003,Cl-Cs-Ga-Rb,4,CsRb2GaCl6
5.539300000000001,Cs-F-Ga-Rb,4,CsRb2GaF6
3.2239000000000004,Cl-Cs-Gd-Rb,4,CsRb2GdCl6
2.6764,Br-Cs-In-Rb,4,CsRb2InBr6
3.5527,Cl-Cs-In-Rb,4,CsRb2InCl6
4.8289,Cs-F-In-Rb,4,CsRb2InF6
2.3735,Cs-F-Ir-Rb,4,CsRb2IrF6
4.4735,Cl-Cs-Lu-Rb,4,CsRb2LuCl6
3.0636,Cs-F-Mo-Rb,4,CsRb2MoF6
0.0,Cs-F-Nb-Rb,4,CsRb2NbF6
1.7853,Cs-F-Pd-Rb,4,CsRb2PdF5
0.0,Cs-F-Pd-Rb,4,CsRb2PdF6
2.2145,Cs-F-Rb-Rh,4,CsRb2RhF6
0.6525000000000001,Cs-Rb-Sb,3,CsRb2Sb
3.3826,Cl-Cs-Rb-Sb,4,CsRb2SbCl6
3.3907000000000003,Cs-F-Rb-Sb,4,CsRb2SbF6
3.3122,Br-Cs-Rb-Sc,4,CsRb2ScBr6
4.083,Cl-Cs-Rb-Sc,4,CsRb2ScCl6
5.8718,Cs-F-Rb-Sc,4,CsRb2ScF6
5.4931,Cs-F-Rb-Si,4,CsRb2SiF7
0.0,Cs-F-Rb-Ta,4,CsRb2TaF6
4.4361,Cl-Cs-Rb-Tb,4,CsRb2TbCl6
0.0,Cs-F-Rb-Ti,4,CsRb2TiF6
1.7076,Br-Cs-Rb-Tl,4,CsRb2TlBr6
3.6496,Cs-F-Rb-Tl,4,CsRb2TlF6
4.4646,Cl-Cs-Rb-Tm,4,CsRb2TmCl6
0.0,Cs-F-Rb-V,4,CsRb2VF6
3.7632,Br-Cs-Rb-Y,4,CsRb2YBr6
4.422700000000001,Cl-Cs-Rb-Y,4,CsRb2YCl6
5.4863,Cs-F-Rb-Y,4,CsRb2YF6
0.0,Cs-Rb,2,CsRb3
0.0,As-Cs-Rb,3,CsRbAs
0.7103,Au-Cs-Rb,3,CsRbAu2
3.3416,C-Cs-Rb,3,CsRbC2
0.0,Cs-Mg-Rb,3,CsRbMg14
1.5640999999999998,Cs-Mg-O-Rb,4,CsRbMg14O15
2.2172,Cs-Mg-O-Rb,4,CsRbMg14O15
1.9776,Cs-Mg-O-Rb,4,CsRbMg14O15
0.0,Cs-Mg-Rb,3,CsRbMg6
0.0,Cs-Mg-O-Rb,4,CsRbMg6O7
0.6926999999999994,Cs-Mg-O-Rb,4,CsRbMg6O7
3.3815,Cs-F-Mn-Rb,4,CsRbMnF6
0.0,Cs-N-Rb,3,CsRbN
1.2535999999999998,Cs-O-Rb,3,CsRbO
0.0,Cs-O-Rb,3,CsRbO3
0.0,Cs-P-Rb,3,CsRbP
4.8740000000000006,Cs-O-Rb-S,4,CsRbSO4
0.0170000000000003,Cs-N-Re,3,CsRe2N3
0.0,Cs-F-Re,3,CsReF6
1.7181000000000002,Cs-F-Re,3,CsReF8
0.0,Cs-O-Re,3,CsReO2
4.2585,Cs-O-Re,3,CsReO4
4.158,Cs-O-Re,3,CsReO4
1.2352,Cs-F-Ru,3,CsRuF6
0.0,Cs-N-Ru,3,CsRuN2
0.0,Cs-O-Ru,3,CsRuO3
0.0,Cs-S,2,CsS
1.7260000000000002,Cs-S,2,CsS
0.3032999999999999,Cs-F-O-S,4,CsS2(O3F)2
4.4107,Cs-F-O-S,4,CsSO2F
0.4314,Cs-O-S,3,CsSO3
5.1115,Cs-O-S,3,CsSO3
5.164499999999999,Cs-F-O-S,4,CsSO3F
0.1102999999999999,Cs-O-S,3,CsSO4
0.1174,Cs-O-S,3,CsSO4
0.1049,Cs-O-S,3,CsSO4
3.5016,Cs-O-S,3,CsSO4
2.958,Cs-O-P-Sb,4,CsSb(PO4)2
3.1755,Cs-F-Sb,3,CsSb2F7
4.3035,Cs-F-Sb,3,CsSb2F7
4.1067,Cs-F-Sb,3,CsSb2F7
4.5892,Cs-F-Sb,3,CsSb4F13
1.3290000000000002,Bi-Br-Dy-O,4,DyBi2BrO4
1.3739,Bi-Cl-Dy-O,4,DyBi2ClO4
1.3667999999999996,Bi-Dy-I-O,4,DyBi2IO4
0.0,Bi-Dy-O-Ru,4,DyBi3(Ru2O7)2
0.0,Bi-Dy-O,3,DyBiO3
0.0,Bi-Dy-Pd,3,DyBiPd
0.0,Bi-Dy-Pt,3,DyBiPt
0.0,Bi-Dy-Rh,3,DyBiRh
0.0,Bi-Dy-O-Ru,4,DyBiRu2O7
0.0,Br-Dy,2,DyBr2
3.0029,Br-Dy,2,DyBr3
0.0,C-Dy,2,DyC2
0.7540999999999999,C-Dy-O,3,DyCO4
0.0,Cd-Dy,2,DyCd
0.0,Cd-Dy,2,DyCd2
0.0,Cd-Dy,2,DyCd3
0.0,Ag-Cd-Dy,3,DyCdAg2
0.0,Au-Cd-Dy,3,DyCdAu
0.0,Au-Cd-Dy,3,DyCdAu2
0.0,Cd-Cu-Dy,3,DyCdCu
0.0,Cd-Dy-Ga,3,DyCdGa
0.0,Cd-Dy-Hg,3,DyCdHg2
0.0,Cd-Dy-In,3,DyCdIn
0.0,Cd-Dy-Ni,3,DyCdNi4
0.0,Cd-Dy-Pd,3,DyCdPd2
0.0,Cd-Dy-Pt,3,DyCdPt2
0.0,Cd-Dy-Rh,3,DyCdRh2
3.8954,Cl-Dy,2,DyCl3
5.1946,Cl-Dy-O,3,DyClO
4.349,Cl-Dy-O,3,DyClO
5.167300000000001,Cl-Dy-O,3,DyClO
0.0,Cl-Dy-O,3,DyClO2
0.0,Co-Dy,2,DyCo2
0.0,Co-Dy,2,DyCo3
0.0,B-Co-Dy,3,DyCo3B2
0.0,Co-Dy-P,3,DyCo3P2
0.0,B-Co-Dy,3,DyCo4B
0.0,Co-Dy,2,DyCo5
0.0,Co-Dy-P,3,DyCo5P3
0.0,B-Co-Dy,3,DyCoB4
0.0,C-Co-Dy,3,DyCoC
0.0,C-Co-Dy,3,DyCoC2
0.0,Co-Dy-Ge,3,DyCoGe
0.0,Co-Dy-Ni,3,DyCoNi
1.1923999999999997,Co-Dy-O,3,DyCoO3
0.0,Co-Dy-Si,3,DyCoSi
0.0,Co-Dy-Si,3,DyCoSi2
0.0,Co-Dy-Rh-Si,4,DyCoSi2Rh
0.0,Co-Dy-Sn,3,DyCoSn
0.0,Co-Dy-Sn,3,DyCoSn2
0.0,Cr-Dy-O,3,DyCr2O2
0.0,C-Cr-Dy-Si,4,DyCr2Si2C
0.3833000000000002,B-Cr-Dy,3,DyCrB4
2.83,Cr-Dy-Ge-O,4,DyCrGeO5
0.0,Cr-Dy-O,3,DyCrO2
2.2185000000000006,Cr-Dy-O,3,DyCrO3
0.2979999999999998,Cr-Dy-O,3,DyCrO4
0.0,Cr-Dy-Sb,3,DyCrSb3
0.1166,Cr-Dy-Se,3,DyCrSe3
2.7169000000000003,Cr-Dy-O-Te,4,DyCrTeO6
1.4639000000000002,Cr-Dy-O-Te,4,DyCrTeO6
0.0,Cu-Dy,2,DyCu
1.3993000000000002,Cu-Dy-O-W,4,DyCu(WO4)2
1.2412,Cu-Dy-O-W,4,DyCu(WO4)2
0.0,Cu-Dy,2,DyCu2
0.0,Cu-Dy-O-Se,4,DyCu2SeO2
0.0,Ag-Cu-Dy,3,DyCu4Ag
0.0,Cu-Dy-Pd,3,DyCu4Pd
0.0,Cu-Dy,2,DyCu5
0.0,Cu-Dy-Sn,3,DyCu5Sn
0.0,Cu-Dy,2,DyCu7
0.0,As-Cu-Dy,3,DyCuAs2
0.0,Cu-Dy-Ge,3,DyCuGe
0.0,Cu-Dy-O,3,DyCuO3
0.0,Cu-Dy-Pb,3,DyCuPb
1.5979,Cu-Dy-Pb-S,4,DyCuPbS3
1.6324,Cu-Dy-S,3,DyCuS2
1.6783,Cu-Dy-S,3,DyCuS2
0.0,Cu-Dy-Sb,3,DyCuSb2
0.3488000000000006,Cu-Dy-Sb,3,DyCuSb2
1.0667999999999995,Cu-Dy-Se,3,DyCuSe2
1.1846000000000003,Cu-Dy-O-Se,4,DyCuSeO
0.0,Cu-Dy-Si,3,DyCuSi
0.0,Cu-Dy-Sn,3,DyCuSn
0.6222000000000003,Cu-Dy-Te,3,DyCuTe2
0.1203000000000003,Cu-Dy-Te,3,DyCuTe2
0.0,Dy-Er,2,DyEr
0.0,Dy-Er,2,DyEr3
0.0,Ag-Dy-Er,3,DyErAg2
0.0,Al-Dy-Er,3,DyErAl2
0.0,Al-Dy-Er,3,DyErAl4
0.0,C-Dy-Er,3,DyErC4
0.0,Cd-Dy-Er,3,DyErCd2
0.0,Cu-Dy-Er,3,DyErCu2
0.0,Dy-Er-Mn,3,DyErMn4
3.0896,Dy-Er-O,3,DyErO3
0.0,Dy-Er-Rh,3,DyErRh2
0.0,Dy-Er-Ru,3,DyErRu2
0.0,Dy-Er-Te,3,DyErTe2
0.0,Dy-Er-Tl,3,DyErTl2
0.0,Dy-Er-Zn,3,DyErZn2
7.7755,Dy-F,2,DyF3
7.8654,Dy-F,2,DyF3
0.0,Dy-Fe,2,DyFe2
0.0,B-Co-Dy-Fe,4,DyFe2Co2B
0.0,C-Dy-Fe-Si,4,DyFe2SiC
0.0,Dy-Fe,2,DyFe3
2.4135000000000004,B-Dy-Fe-O,4,DyFe3(BO3)4
0.0,Cu-Dy-Fe-O,4,DyFe4(CuO4)3
0.0,Dy-Fe,2,DyFe5
0.0,Dy-Fe-P,3,DyFe5P3
0.0,Dy-Fe-Ge-Sn,4,DyFe6(Sn2Ge)2
0.0,B-Dy-Fe,3,DyFeB4
0.0,C-Dy-Fe,3,DyFeC2
0.0,Cu-Dy-Fe,3,DyFeCu
0.0,Dy-Fe-Ge,3,DyFeGe2
0.0,Dy-Fe-Ni,3,DyFeNi
0.0,Dy-Fe-Ni,3,DyFeNi4
0.9134000000000002,Dy-Fe-O,3,DyFeO3
0.0,Dy-Fe-Si,3,DyFeSi
0.0,Dy-Ga,2,DyGa
0.0,Dy-Ga,2,DyGa2
0.0,Co-Dy-Ga,3,DyGa2Co3
0.0,Cu-Dy-Ga,3,DyGa2Cu3
0.0,Dy-Ga-Ni,3,DyGa2Ni
0.0,Dy-Ga-Ni,3,DyGa2Ni3
0.0,Dy-Ga-Pd,3,DyGa2Pd
0.0,Dy-Ga,2,DyGa3
4.4185,B-Dy-Ga-O,4,DyGa3(BO3)4
0.0,Cu-Dy-Ga,3,DyGa3Cu
0.0,Dy-Ga-Ni,3,DyGa3Ni2
0.0,Dy-Ga-Ru,3,DyGa3Ru
0.0,Dy-Ga-Ni,3,DyGa4Ni
0.0,Co-Dy-Ga,3,DyGa5Co
0.0,Dy-Ga,2,DyGa6
0.0,Ag-Dy-Ga,3,DyGaAg
0.0,Co-Dy-Ga,3,DyGaCo
0.0,Co-Dy-Ga,3,DyGaCo4
0.0,Cu-Dy-Ga,3,DyGaCu
0.0,Co-Dy-Fe-Ga,4,DyGaFeCo3
0.0,Dy-Ga-Ni,3,DyGaNi
3.6351,Dy-Ga-O,3,DyGaO3
2.8659,Dy-Ga-O,3,DyGaO3
0.0,Dy-Ga-Pd,3,DyGaPd
0.0,Dy-Ga-Pd,3,DyGaPd2
0.0,Dy-Ga-Pt,3,DyGaPt
0.0,Dy-Ga-Rh,3,DyGaRh2
0.0,Dy-Ge,2,DyGe
0.0,Dy-Ge-Ir,3,DyGe2Ir
0.0,Dy-Ge-Pd,3,DyGe2Pd
0.0,Dy-Ge-Pt,3,DyGe2Pt
0.0,Dy-Ge,2,DyGe3
0.0,Au-Dy-Ge,3,DyGeAu
0.0,Dy-Ge-Ir,3,DyGeIr
0.0,Dy-Ge-Pd,3,DyGePd
0.0,Dy-Ge-Pd,3,DyGePd2
0.0,Dy-Ge-Pt,3,DyGePt
0.0,Dy-Ge-Rh,3,DyGeRh
0.0,Dy-Ge-Ru,3,DyGeRu
0.0,Dy-H,2,DyH2
0.0047999999999999,Dy-H,2,DyH3
0.0,Dy-H,2,DyH3
4.5207,C-Dy-H-N-O,5,DyH9C5(NO4)2
0.1462999999999999,C-Dy-H,3,DyHC4
3.9345,Dy-H-O,3,DyHO2
4.5215,Dy-H-O,3,DyHO2
4.728,Dy-H-O,3,DyHO2
1.4876999999999994,Dy-H-Se,3,DyHSe
6.8513,Dy-F-Hf,3,DyHfF7
0.0,Dy-Hg,2,DyHg
0.0,Dy-Hg,2,DyHg2
0.0,Dy-Hg,2,DyHg3
0.0,Dy-Ho,2,DyHo
0.0,Dy-Ho,2,DyHo3
0.0,Al-Dy-Ho,3,DyHoAl4
0.0,C-Dy-Ho,3,DyHoC4
0.0,Dy-Hg-Ho,3,DyHoHg2
0.0,Dy-Ho-In,3,DyHoIn2
0.0,Dy-Ho-Ir,3,DyHoIr2
0.0,Dy-Ho-Mg,3,DyHoMg2
0.0,Dy-Ho-Mn,3,DyHoMn4
2.8424,Dy-Ho-O,3,DyHoO3
0.0,Dy-Ho-Ru,3,DyHoRu2
0.0,Dy-Ho-Tl,3,DyHoTl2
0.0,Dy-Ho-Zn,3,DyHoZn2
2.1725000000000003,Dy-I,2,DyI3
0.0,Dy-In,2,DyIn
0.0,Dy-In-Ni,3,DyIn2Ni
0.0,Dy-In-Ni,3,DyIn2Ni9
0.0,Dy-In,2,DyIn3
0.0,Cu-Dy-In,3,DyIn3Cu2
0.0,Co-Dy-In,3,DyIn5Co
0.0,Dy-In-Rh,3,DyIn5Rh
0.0,Cu-Dy-In,3,DyIn7Cu5
0.0,Ag-Dy-In,3,DyInAg2
0.0,Au-Dy-In,3,DyInAu
0.0,Au-Dy-In,3,DyInAu2
0.0,Co-Dy-In,3,DyInCo2
0.0,Co-Dy-In,3,DyInCo4
0.0,Cu-Dy-In,3,DyInCu
0.0,Cu-Dy-In,3,DyInCu2
0.0,Cu-Dy-In,3,DyInCu4
0.0,Dy-In-Ir,3,DyInIr
0.0,Dy-In-Ni,3,DyInNi
2.623,Dy-In-O,3,DyInO3
1.5367000000000006,Dy-In-O,3,DyInO3
1.9871,Dy-In-O,3,DyInO3
0.0,Dy-In-Pd,3,DyInPd2
0.0,Dy-In-Pt,3,DyInPt
0.0,Dy-In-Pt,3,DyInPt2
0.0,Dy-In-Pt,3,DyInPt4
0.0,Dy-In-Rh,3,DyInRh
0.0,Dy-In-Rh,3,DyInRh2
0.0,Dy-Ir,2,DyIr2
0.0,Dy-Ir,2,DyIr3
0.0,Dy-Lu,2,DyLu3
0.0,Ag-Dy-Lu,3,DyLuAg2
0.0,Cd-Dy-Lu,3,DyLuCd2
0.0,Cu-Dy-Lu,3,DyLuCu2
0.0,Dy-Hg-Lu,3,DyLuHg2
0.0,Dy-In-Lu,3,DyLuIn2
0.0,Dy-Ir-Lu,3,DyLuIr2
0.0,Dy-Lu-Mg,3,DyLuMg2
4.634,Dy-Lu-O,3,DyLuO3
0.0,Dy-Lu-Rh,3,DyLuRh2
0.0,Dy-Lu-Ru,3,DyLuRu2
0.0,Dy-Lu-Tl,3,DyLuTl2
0.0,Dy-Lu-Zn,3,DyLuZn2
0.0,Dy-Mg,2,DyMg
0.0,Dy-Mg,2,DyMg2
0.8209,Cr-Dy-Mg-S,4,DyMg2Cr3S8
0.0,Cu-Dy-Mg,3,DyMg2Cu9
0.0,Dy-Mg-Mn-S,4,DyMg2Mn3S8
0.0,Dy-Mg-Mo-S,4,DyMg2Mo3S8
0.0,Dy-Mg-Sc,3,DyMg2Sc
0.0,Dy-Mg-S-Ti,4,DyMg2Ti3S8
0.0,Dy-Mg-S-V,4,DyMg2V3S8
0.0,Dy-Mg-S-W,4,DyMg2W3S8
0.0,Dy-Mg,2,DyMg3
0.0,Dy-Mg,2,DyMg5
0.0,Ag-Dy-Mg,3,DyMgAg
0.0,Ag-Dy-Mg,3,DyMgAg2
0.0,Au-Dy-Mg,3,DyMgAu
0.0,Au-Dy-Mg,3,DyMgAu2
0.0,Cd-Dy-Mg,3,DyMgCd2
0.8414999999999999,Cr-Dy-Mg-S,4,DyMgCrS4