eg,chemsys,nelements,formula
0.0,Au-Cl-Cs-Tl,4,Cs2TlAuCl6
0.0,Au-Cs-F-Tl,4,Cs2TlAuF6
0.0,Au-Cs-I-Tl,4,Cs2TlAuI6
1.7359000000000002,Bi-Br-Cs-Tl,4,Cs2TlBiBr6
2.2573000000000003,Bi-Cl-Cs-Tl,4,Cs2TlBiCl6
3.0939,Bi-Cs-F-Tl,4,Cs2TlBiF6
2.9239,Co-Cs-F-Tl,4,Cs2TlCoF6
4.1533,Cr-Cs-F-Tl,4,Cs2TlCrF6
0.0,Br-Cs-Cu-Tl,4,Cs2TlCuBr6
0.0,Cl-Cs-Cu-Tl,4,Cs2TlCuCl6
0.0,Cs-Cu-F-Tl,4,Cs2TlCuF6
2.9057,Cs-F-Fe-Tl,4,Cs2TlFeF6
1.7459,Br-Cs-Ga-Tl,4,Cs2TlGaBr6
2.6597,Cl-Cs-Ga-Tl,4,Cs2TlGaCl6
4.763400000000001,Cs-F-Ga-Tl,4,Cs2TlGaF6
0.3833999999999999,Cs-Ga-H-Tl,4,Cs2TlGaH6
0.5740000000000001,Cs-Ga-I-Tl,4,Cs2TlGaI6
0.0,Br-Cs-Hg-Tl,4,Cs2TlHgBr6
0.0,Cl-Cs-Hg-Tl,4,Cs2TlHgCl6
0.0,Cs-F-Hg-Tl,4,Cs2TlHgF6
0.0,Cs-Hg-I-Tl,4,Cs2TlHgI6
1.8255,Br-Cs-In-Tl,4,Cs2TlInBr6
2.7015,Cl-Cs-In-Tl,4,Cs2TlInCl6
3.9896,Cs-F-In-Tl,4,Cs2TlInF6
0.4116999999999997,Cs-H-In-Tl,4,Cs2TlInH6
1.4001,Cs-I-In-Tl,4,Cs2TlInI6
3.8865,Cs-F-Mo-Tl,4,Cs2TlMoF6
0.0,Cs-F-Pd-Tl,4,Cs2TlPdF6
1.9056,Cs-F-Rh-Tl,4,Cs2TlRhF6
0.5579000000000001,Cs-F-Ru-Tl,4,Cs2TlRuF6
1.2294000000000005,Br-Cs-Sb-Tl,4,Cs2TlSbBr6
2.0043,Cl-Cs-Sb-Tl,4,Cs2TlSbCl6
2.5275,Cs-F-Sb-Tl,4,Cs2TlSbF6
0.0,Cs-H-Si-Tl,4,Cs2TlSiH6
0.0,Cs-F-Tl-V,4,Cs2TlVF6
2.2057,Cs-Mg-O-Tm-W,5,Cs2Tm2Mg(WO4)4
2.1167,Cs-Mg-O-Tm-W,5,Cs2Tm2Mg(WO4)4
1.761,Cs-Mg-O-Tm-W,5,Cs2Tm2Mg(WO4)4
2.3443000000000005,Cs-Mg-O-Tm-W,5,Cs2Tm2Mg(WO4)4
2.0428,Cs-Mg-O-Tm-W,5,Cs2Tm2Mg(WO4)4
3.7563,Ag-Cl-Cs-Tm,4,Cs2TmAgCl6
0.0,Cl-Cs-Tm,3,Cs2TmCl4
2.4365,Cl-Cs-Cu-Tm,4,Cs2TmCuCl6
0.0,Cs-H-Tm,3,Cs2TmH4
2.3217,Cl-Cs-O-U,4,Cs2U(Cl2O)2
0.0,Cs-O-U,3,Cs2U2O5
1.6135000000000002,Cs-O-U,3,Cs2U2O7
1.5078,Cs-O-U,3,Cs2U2O7
1.8635,Cs-O-Te-U,4,Cs2U3(TeO7)2
0.0,Br-Cs-U,3,Cs2UBr6
0.0,Cl-Cs-U,3,Cs2UCl6
1.8211,Cs-O-U,3,Cs2UO4
0.3959,Cs-F-O-V,4,Cs2V(OF2)2
2.1336000000000004,Cs-O-V,3,Cs2V3O8
1.5452,Cs-O-V,3,Cs2V5O13
0.0,Ag-Cs-F-V,4,Cs2VAgF6
0.0,Br-Cs-O-V,4,Cs2VBr5O4
0.0,Cl-Cs-O-V,4,Cs2VCl5O4
0.0,Cl-Cs-V,3,Cs2VCl6
1.8264,Cs-F-V,3,Cs2VF6
3.4847,Cs-H-O-V,4,Cs2VHO4
3.1768,Cs-F-O-W,4,Cs2W(OF2)2
0.0,Br-Cs-W,3,Cs2WBr6
0.0,Cl-Cs-W,3,Cs2WCl6
4.5316,Cs-O-W,3,Cs2WO4
0.4345,Cs-O-S-W,4,Cs2WSO4
3.335,Ag-Br-Cs-Y,4,Cs2YAgBr6
3.8705,Ag-Cl-Cs-Y,4,Cs2YAgCl6
3.3465000000000003,Ag-Cs-F-Y,4,Cs2YAgF6
2.4594,Ag-Cs-I-Y,4,Cs2YAgI6
1.863,Au-Br-Cs-Y,4,Cs2YAuBr6
2.2263,Au-Cl-Cs-Y,4,Cs2YAuCl6
2.0605,Au-Cs-F-Y,4,Cs2YAuF6
1.1517000000000002,Au-Cs-I-Y,4,Cs2YAuI6
2.0386,Br-Cs-Cu-Y,4,Cs2YCuBr6
2.5338,Cl-Cs-Cu-Y,4,Cs2YCuCl6
1.4267000000000003,Cs-Cu-F-Y,4,Cs2YCuF6
1.7212,Cs-Cu-I-Y,4,Cs2YCuI6
0.0,Br-Cs-Hg-Y,4,Cs2YHgBr6
0.0,Cl-Cs-Hg-Y,4,Cs2YHgCl6
0.0,Cs-F-Hg-Y,4,Cs2YHgF6
0.0,Cs-Hg-I-Y,4,Cs2YHgI6
2.9636,Br-Cs-In-Y,4,Cs2YInBr6
3.496,Cl-Cs-In-Y,4,Cs2YInCl6
4.0503,Cs-F-In-Y,4,Cs2YInF6
3.6928,Br-Cs-Tl-Y,4,Cs2YTlBr6
4.3248,Cl-Cs-Tl-Y,4,Cs2YTlCl6
4.7681,Cs-F-Tl-Y,4,Cs2YTlF6
2.6945,Cs-S-Zn,3,Cs2Zn3S4
4.151199999999999,C-Cs-Fe-N-Zn,5,Cs2ZnFe(CN)6
1.4831,Ag-Cs-Te-Zr,4,Cs2Zr(AgTe2)2
4.789899999999999,Cs-O-Si-Zr,4,Cs2Zr(SiO3)3
2.9771,Cs-O-W-Zr,4,Cs2Zr(WO4)3
3.6531,Cl-Cs-Zr,3,Cs2ZrCl6
0.0,Cs-Cu-F-Zr,4,Cs2ZrCu3F12
6.697699999999999,Cs-F-Zr,3,Cs2ZrF6
1.8398,Cs-I-Zr,3,Cs2ZrI6
3.8566,Cs-O-Zr,3,Cs2ZrO3
1.3691,Cs-Se-Zr,3,Cs2ZrSe3
4.1464,Cs-F-O-Tl-Zr,5,Cs2ZrTlOF5
0.0,Cs-Cu-Se,3,Cs3(Cu4Se3)2
0.4225,Cs-O-Se,3,Cs3(SeO4)2
0.0,Cs-O-Se,3,Cs3(SeO4)2
0.0,Ac-Cs,2,Cs3Ac
3.4333,Al-Br-Cs,3,Cs3AlBr6
4.6735,Al-Cl-Cs,3,Cs3AlCl6
6.2623,Al-Cs-F,3,Cs3AlF6
0.0,As-Cs,2,Cs3As
2.6355,As-Cl-Cs,3,Cs3As2Cl9
2.6409,As-Cl-Cs,3,Cs3As2Cl9
3.1425,As-Cs-O,3,Cs3As5O9
2.9211,As-Br-Cs,3,Cs3AsBr6
3.4844,As-Cl-Cs,3,Cs3AsCl6
4.3032,As-Cs-F,3,Cs3AsF6
0.0,Au-Br-Cs,3,Cs3AuBr6
0.9832,Au-Cs-F,3,Cs3AuF6
1.3261000000000005,Au-Cs-O,3,Cs3AuO
4.7566,B-Br-Cs-H,4,Cs3B12H12Br
4.9577,B-Cl-Cs-H,4,Cs3B12H12Cl
4.535,B-Cs-H-I,4,Cs3B12H12I
1.4845,As-B-Cs,3,Cs3BAs2
1.8444,As-B-Cs-P,4,Cs3BAsP
1.6955000000000002,B-Cs-P,3,Cs3BP2
0.1789999999999998,Bi-Cs,2,Cs3Bi
3.2299,Bi-Cl-Cs,3,Cs3Bi2Cl9
3.4221000000000004,Bi-Br-Cs,3,Cs3BiBr6
3.9505,Bi-Cl-Cs,3,Cs3BiCl6
4.5888,Bi-Cs-F,3,Cs3BiF6
4.2934,Bi-Cs-F,3,Cs3BiF6
1.5868000000000002,Br-Cs-O,3,Cs3BrO
5.174799999999999,Ca-Cl-Cs,3,Cs3Ca2Cl7
2.7222,Cd-Cs-H,3,Cs3CdH5
0.3518000000000003,Ce-Cl-Cs,3,Cs3CeCl6
0.0,Ce-Cs-F,3,Cs3CeF6
2.912,Co-Cs-F,3,Cs3CoF6
0.0,Cr-Cs-F,3,Cs3CrF7
4.7826,Cl-Cs-Dy,3,Cs3DyCl6
2.2585,Cs-Dy-O,3,Cs3DyO3
4.8108,Cl-Cs-Er,3,Cs3ErCl6
2.2503,Cs-Er-O,3,Cs3ErO3
0.0,Cl-Cs-Eu,3,Cs3EuCl6
0.0,Cs-Eu-F,3,Cs3EuF6
0.2488999999999999,Cl-Cs-Fe,3,Cs3Fe2Cl9
4.0085,Cs-F-Fe,3,Cs3FeF6
3.481,Cs-F-Fe,3,Cs3FeF6
2.3433,Br-Cs-Ga,3,Cs3GaBr6
3.6339,Cl-Cs-Ga,3,Cs3GaCl6
5.8579,Cs-F-Ga,3,Cs3GaF6
2.877,Cs-Ga-O,3,Cs3GaO3
3.1365,Cl-Cs-Gd,3,Cs3GdCl6
0.0,Cs-Ge,2,Cs3Ge
4.3869,Cs-F-Ge,3,Cs3GeF7
3.447,Cs-H-O-Se,4,Cs3H(SeO4)2
3.753,Cs-H-O-Se,4,Cs3H(SeO4)2
2.2703,Cs-H-Pd,3,Cs3H5Pd
2.1718,Cs-H-Pt,3,Cs3H5Pt
0.0,Cs-Hg,2,Cs3Hg
4.7232,Cl-Cs-Ho,3,Cs3HoCl6
2.1915,Cs-Ho-O,3,Cs3HoO3
1.5285,Cs-I-O,3,Cs3IO
2.6733,Br-Cs-In,3,Cs3InBr6
3.7287,Cl-Cs-In,3,Cs3InCl6
5.3129,Cs-F-In,3,Cs3InF6
4.7152,Cl-Cs-La,3,Cs3LaCl6
1.7439,Cs-La-O,3,Cs3LaO3
4.5306,Br-Cs-Li,3,Cs3Li2Br5
5.0892,Cl-Cs-Li,3,Cs3Li2Cl5
5.7273,Cs-F-Li,3,Cs3Li2F5
4.3445,Cl-Cs-Li,3,Cs3LiCl4
4.6835,Cl-Cs-Li,3,Cs3LiCl4
5.6548,Cs-F-Li,3,Cs3LiF4
4.3798,Cl-Cs-Mg,3,Cs3Mg2Cl7
2.5844,Cs-H-Mg,3,Cs3MgH5
0.8896999999999999,Cs-Mn-O-V,4,Cs3Mn3V4O16
1.5495,Cs-F-Mn,3,Cs3MnF7
0.0,Cs-H-Mn,3,Cs3MnH5
0.0879000000000003,Cs-Mo-O-P,4,Cs3Mo4P3O16
3.454,B-Cs-Li-Na-O,5,Cs3NaLi2(BO3)2
0.0,Cs-Ni,2,Cs3Ni
0.8734999999999999,Cs-F-Ni,3,Cs3NiF7
2.0825,Cs-F-Pd,3,Cs3PdF5
0.0,Cs-F-Pd,3,Cs3PdF6
4.7154,Cl-Cs-Pr,3,Cs3PrCl6
5.5517,Cs-F-Pr,3,Cs3PrF6
0.0,Cs-Pt,2,Cs3Pt
0.6126,Cs-Sb,2,Cs3Sb
2.3953,Cl-Cs-Sb,3,Cs3Sb2Cl9
2.4898,Cl-Cs-Sb,3,Cs3Sb2Cl9
2.8535,Br-Cs-Sb,3,Cs3SbBr6
3.4949,Cl-Cs-Sb,3,Cs3SbCl6
3.8679,Cs-F-Sb,3,Cs3SbF6
3.3907,Cs-F-Sb,3,Cs3SbF6
3.3137,Br-Cs-Sc,3,Cs3ScBr6
4.0753,Cl-Cs-Sc,3,Cs3ScCl6
6.3471,Cs-F-Sc,3,Cs3ScF6
6.2612000000000005,Cs-F-Sc,3,Cs3ScF6
2.7287,Cs-O-Sc,3,Cs3ScO3
0.0,Cs-Si,2,Cs3Si
5.633800000000001,Cs-F-Si,3,Cs3SiF7
4.7485,Cl-Cs-Sm,3,Cs3SmCl6
2.8311,Cs-O-Ta,3,Cs3TaO8
4.782,Cl-Cs-Tb,3,Cs3TbCl6
5.745,Cs-F-Tb,3,Cs3TbF6
0.0,Cs-F-Ti,3,Cs3TiF6
2.9901,Cs-F-Ti,3,Cs3TiF7
1.6915,Br-Cs-Tl,3,Cs3TlBr6
2.5485,Cl-Cs-Tl,3,Cs3TlCl6
3.6388,Cs-F-Tl,3,Cs3TlF6
3.3184,Cs-F-Tl,3,Cs3TlF6
1.5384,Cs-O-Tl,3,Cs3TlO3
4.812200000000001,Cl-Cs-Tm,3,Cs3TmCl6
2.267,Cs-O-Tm,3,Cs3TmO3
0.0,Cs-F-U,3,Cs3UF6
0.0,Cl-Cs-O-V,4,Cs3V(Cl3O2)2
0.0,Cl-Cu-N-O,4,CuN2(Cl2O)2
1.5383,Cu-N,2,CuN3
1.6330000000000002,Cu-N,2,CuN3
0.0,Cu-N-O,3,CuN4O3
0.0,Cu-N,2,CuN6
0.0,Cu-F-N,3,CuNF3
0.0,Cu-Ni,2,CuNi
0.0,Cu-Ni-O-P,4,CuNi2(PO4)2
0.0,Cu-Ge-Ni,3,CuNi2Ge
0.0,Cu-Ni-Sb,3,CuNi2Sb
0.0,Cu-Ni-Sn,3,CuNi2Sn
0.0,Cu-Ni,2,CuNi3
0.0,Cu-Ni-S-Sn,4,CuNi3(SnS4)2
0.0,Cu-N-Ni,3,CuNi3N
0.0,Cu-Ni-O,3,CuNi3O4
0.0,Cu-Ni-S,3,CuNi3S8
0.0,Cu-Ni-O,3,CuNi4O5
0.0,Cu-Ni-O,3,CuNi9O10
0.0,Au-Cu-Ni,3,CuNiAu
1.0759,C-Cu-H-N-Ni,5,CuNiH16(CN)8
0.0,Cu-Ni-O,3,CuNiO2
0.1106999999999995,Cu-Ni-O,3,CuNiO2
0.0,Cu-Ni-Pd,3,CuNiPd
0.0,Cu-Ni-Sb,3,CuNiSb2
0.3319999999999998,Cu-Ni-S-Sb,4,CuNiSbS3
0.0,Cu-O,2,CuO
0.0131000000000001,Cu-O,2,CuO
0.0222999999999999,Cu-O,2,CuO
0.0,Cu-O,2,CuO2
0.0727999999999999,Cu-O,2,CuO2
0.3263,Cu-F-O,3,CuO2F
0.0,Cu-F-O,3,CuO2F
0.0,Cu-N-Os,3,CuOsN2
0.5852999999999999,Cu-H-O-P,4,CuP(HO)5
0.0547999999999999,Cu-H-O-P,4,CuP(HO)5
0.8679000000000006,Cu-P,2,CuP2
1.085,Cu-H-O-P,4,CuP2(HO)4
0.0,Cu-H-O-P,4,CuP2(HO)4
0.0582,Cu-F-H-N-O-P,6,CuP2H12N2(O4F)2
0.4145000000000001,C-Cu-H-N-O-P,6,CuP2H8CN2O5
0.0,Cu-O-P-Ru,4,CuP4(RuO7)2
0.0,Cu-H-N-O-P,5,CuPH6NO5
0.9088,Cu-H-N-O-P,5,CuPH6NO5
0.7223999999999999,Cu-H-O-P,4,CuPHO4
1.8222999999999985,Cu-N-P,3,CuPN2
0.0078999999999997,Cu-O-P,3,CuPO4
0.0,Cu-O-P,3,CuPO4
0.1258,Cu-O-P,3,CuPO4
0.0,Cu-F-O-P,4,CuPO4F
0.0,Cu-O-P,3,CuPO5
0.3937999999999999,Cu-O-P,3,CuPO5
0.6518000000000002,Cu-O-P-Pb-S,5,CuPPb2SO9
0.0,Cu-P-S,3,CuPS2
1.1555,Cu-P-S,3,CuPS3
0.0,Cu-P-Se,3,CuPSe2
0.0,Cl-Cu-O-Pb,4,CuPb2(ClO)2
0.0,Cl-Cu-O-Pb,4,CuPb2(ClO2)2
0.0,Cu-F-O-Pb,4,CuPb2(OF)2
0.0,Cl-Cu-Pb-S,4,CuPb2(SCl)2
0.0,Cu-Pb,2,CuPb3
0.0,Cl-Cu-O-Pb,4,CuPb3(ClO2)2
0.0,Cu-O-Pb-S,4,CuPb4(SO7)2
0.0,Br-Cu-Pb,3,CuPbBr3
0.2011,Cu-F-Pb,3,CuPbF6
0.0,Cu-O-Pb,3,CuPbO2
0.0,Cu-O-Pb,3,CuPbO3
0.0,Cu-O-Pb-S,4,CuPbSO6
0.0,Cu-Pd,2,CuPd
0.0,Cu-Pd,2,CuPd3
0.0,Cu-F-Pd,3,CuPdF6
0.0,Cu-O-Pd,3,CuPdO2
0.0,Cu-O-Pd,3,CuPdO3
0.0,Cu-Pt,2,CuPt
0.0,Cl-Cu-N-Pt,4,CuPt(NCl)4
0.0,Cu-Pt,2,CuPt7
0.0814,Cu-F-Pt,3,CuPtF6
0.0,Cu-O-Pt,3,CuPtO2
1.3068,Cu-H-O-Re,4,CuRe2(H2O3)4
0.0,Cl-Cu-Re,3,CuRe2Cl
0.0,Cu-O-Re,3,CuReO4
0.6712000000000002,Cu-O-Re,3,CuReO4
0.0,Cu-Rh,2,CuRh
0.0,Cu-Pb-Rh,3,CuRh2Pb
0.6553000000000004,Cu-O-Rh,3,CuRhO2
0.0,Cu-Ru,2,CuRu3
0.0,Cu-S,2,CuS
0.0,Cu-S,2,CuS2
0.141,Cu-N-O-S,4,CuSNO3
0.0,Cu-O-S,3,CuSO4
0.0,Cu-O-S,3,CuSO5
0.0,Cu-O-S,3,CuSO7
0.0,Cu-O-S,3,CuSO9
0.3054000000000005,Cu-Mo-O-Sb,4,CuSb(MoO4)2
0.0,Cu-O-P-Sb,4,CuSb(PO4)2
0.0,Cu-O-P-Sb,4,CuSb3(PO4)6
0.423,Cu-O-S-Sb,4,CuSb6(SO8)2
0.0,Cu-Rh-Sb,3,CuSbRh2
0.7226999999999997,Cu-S-Sb,3,CuSbS2
0.4985999999999997,Cu-Sb-Se,3,CuSbSe2
0.0,Cu-Sb-Te,3,CuSbTe2
0.0,Cu-Se,2,CuSe
0.0,Cu-Se,2,CuSe2
0.8486,Br-Cu-Se,3,CuSe2Br
0.5841000000000001,Cl-Cu-Se,3,CuSe2Cl
0.0,Cu-O-Se,3,CuSe2O5
0.0,Cu-O-Se,3,CuSeO3
0.0,Cu-O-Se,3,CuSeO4
0.2415,Cu-O-Se,3,CuSeO5
0.0,Cu-O-Se,3,CuSeO5
0.0,Cu-S-Se,3,CuSeS
0.2218999999999997,Cu-H-O-Si,4,CuSi(HO2)2
0.1019999999999998,Cu-F-O-Si,4,CuSi(O2F3)2
1.7323999999999984,Cu-N-Si,3,CuSi2N3
0.0,Cu-P-Si,3,CuSi2P3
0.0,Cu-P-Si,3,CuSi4P3
0.2718999999999996,Cu-N-Si,3,CuSi7N10
0.0,Br-Cu-Si,3,CuSiBr
0.6404,Cu-F-H-O-Si,5,CuSiH8(O2F3)2
0.1120000000000001,Cu-O-Si,3,CuSiO3
0.0,Cu-O-Si,3,CuSiO3
0.0,Cu-O-Si,3,CuSiO4
0.0,Cu-Rh-Si,3,CuSiRh2
0.0,Cu-Sn,2,CuSn
0.1998999999999999,Cu-F-O-Sn,4,CuSn(O2F3)2
0.1989,Cu-O-P-Sn,4,CuSn(PO4)2
0.0,Cu-Sn,2,CuSn3
0.0,Au-Cu-Sn,3,CuSnAu
0.0,Cu-F-Sn,3,CuSnF6
0.0994999999999999,Cu-F-Sn,3,CuSnF6
0.2782000000000001,Cu-F-Sn,3,CuSnF6
0.6204000000000001,Cu-H-N-O-Sn,5,CuSnH12(NO3)2
0.0,Cu-H-N-O-Sn,5,CuSnH12(NO3)2
0.0,Cu-O-Sn,3,CuSnO6
0.0,Cu-Pd-Sn,3,CuSnPd2
0.0,Cu-Rh-Sn,3,CuSnRh2
0.0,Bi-Cu-Tc,3,CuTcBi
0.0,Cu-Te,2,CuTe
0.0,Cu-O-P-Te,4,CuTe(PO4)2
0.0,Cu-Te,2,CuTe2
0.7460999999999998,Br-Cu-Te,3,CuTe2Br
0.5968999999999998,Cl-Cu-Te,3,CuTe2Cl
0.1303,Cu-O-Te,3,CuTe2O5
0.0,As-Cu-Te,3,CuTeAs
0.0,Cu-O-Te,3,CuTeO3
0.0019,Cu-O-Te,3,CuTeO3
0.0338000000000002,Cu-O-Te,3,CuTeO4
0.0,Cu-O-Te,3,CuTeO4
0.3853,Cu-O-Te,3,CuTeO4
0.0,Cu-O-Te,3,CuTeO5
1.2396000000000005,Br-Cu-S-Te,4,CuTeSBr
1.2200000000000002,Cl-Cu-S-Te,4,CuTeSCl
0.0,Cu-Se-Te,3,CuTeSe
1.0534999999999997,Br-Cu-Se-Te,4,CuTeSeBr
1.0564,Cl-Cu-Se-Te,4,CuTeSeCl
1.0381000000000005,Cu-I-Se-Te,4,CuTeSeI
0.0,Cu-F-O-W,4,CuWO3F2
0.0,Cu-O-W,3,CuWO4
0.6442,Cu-O-W,3,CuWO4
0.0,Cu-Se-W,3,CuWSe2
0.0,Dy,1,Dy
0.0,Al-Cr-Dy,3,Dy(Al2Cr)4
0.0,Al-Cu-Dy,3,Dy(Al2Cu)4
0.0,Al-Dy-Fe,3,Dy(Al2Fe)4
0.0,Al-Dy-Fe,3,Dy(Al5Fe)2
0.0,Al-C-Dy,3,Dy(AlC)3
0.0,Al-Cr-Dy,3,Dy(AlCr)6
0.0,Al-Cu-Dy,3,Dy(AlCu)6
0.0,Al-Dy-Fe,3,Dy(AlFe)6
0.0,Al-Dy-Ge,3,Dy(AlGe)2
0.0,Al-Dy-Si,3,Dy(AlSi)2
0.0,B-C-Dy,3,Dy(BC)2
0.0,B-Dy-Ir,3,Dy(BIr)2
0.0,B-Dy-Rh,3,Dy(BRh)4
0.0,B-Dy-Ru,3,Dy(BRu)4
2.0037,Bi-Dy-O,3,Dy(BiO2)3
0.975,Br-Dy-O,3,Dy(BrO2)3
0.0419999999999999,Cl-Dy-O,3,Dy(ClO2)3
0.0,Cl-Dy-O,3,Dy(ClO2)3
4.9878,Cl-Dy-O,3,Dy(ClO4)3
5.4769,Cl-Dy-O,3,Dy(ClO4)3
0.0,B-Co-Dy,3,Dy(Co2B)6
0.0,Co-Dy-Mo,3,Dy(Co5Mo)2
0.0,B-Co-Dy,3,Dy(CoB)2
0.0,B-Co-Dy,3,Dy(CoB)4
0.0,Co-Dy-Ge,3,Dy(CoGe)2
0.0,Co-Dy-Ge,3,Dy(CoGe)6
0.0,Co-Dy-Si,3,Dy(CoSi)2
0.0,Cr-Dy-Fe,3,Dy(CrFe5)2
0.0,Cr-Dy-Ge,3,Dy(CrGe)2
0.0,Cr-Dy-Ge,3,Dy(CrGe)6
0.0,Cr-Dy-Si,3,Dy(CrSi)2
0.0,Cu-Dy-Ge,3,Dy(CuGe)2
0.0,Cu-Dy-O,3,Dy(CuO2)2
0.0,Cu-Dy-S,3,Dy(CuS)2
1.3966000000000005,Cu-Dy-S,3,Dy(CuS)3
1.2397,Cu-Dy-Se,3,Dy(CuSe)3
0.0,Cu-Dy-Si,3,Dy(CuSi)2
0.7643000000000004,Cu-Dy-Te,3,Dy(CuTe)3
0.0,Dy-Fe-Ge,3,Dy(Fe2Ge)2
0.0,Dy-Fe-Si,3,Dy(Fe2Si)2
0.0,Dy-Fe-Mo,3,Dy(Fe5Mo)2
0.0,Dy-Fe-Re,3,Dy(Fe5Re)2
0.0,Dy-Fe-Si,3,Dy(Fe5Si)2
0.0,B-Dy-Fe,3,Dy(FeB)2
0.0,Dy-Fe-Ge,3,Dy(FeGe)2
0.0,Dy-Fe-Ge,3,Dy(FeGe)6
0.0,Dy-Fe-O,3,Dy(FeO2)2
0.0,Dy-Fe-Si,3,Dy(FeSi)2
0.0,Dy-Fe-Sn,3,Dy(FeSn)6
0.0,Co-Dy-Ga,3,Dy(GaCo)6
0.0,Dy-Fe-Ga,3,Dy(GaFe)6
0.0,Dy-Ge-Pd,3,Dy(GePd)2
0.0,Dy-Ge-Pt,3,Dy(GePt)2
0.0,Dy-Ge-Rh,3,Dy(GeRh)2
0.0,Dy-Ge-Ru,3,Dy(GeRu)2
3.710900000000001,Dy-H-O,3,Dy(HO)3
0.0,Cu-Dy-In,3,Dy(InCu)6
0.0,Dy-In-Pt,3,Dy(InPt)4
0.0,Al-Dy-Mn,3,Dy(MnAl)6
0.0,Al-Dy-Mn,3,Dy(MnAl2)4
0.0,Dy-Ge-Mn,3,Dy(MnGe)2
0.0,Dy-Ge-Mn,3,Dy(MnGe)6
0.0,Dy-Mn-Si,3,Dy(MnSi)2
0.0,Dy-Mn-Sn,3,Dy(MnSn)6
0.0,Dy-Mo-S,3,Dy(Mo3S4)2
0.0,Dy-Mo-Se,3,Dy(Mo3Se4)2
0.0,As-Dy-Ni,3,Dy(Ni2As)2
0.0,B-Dy-Ni,3,Dy(Ni2B)6
0.0,Dy-Ni-P,3,Dy(Ni2P)2
0.0,B-Dy-Ni,3,Dy(NiB)2
0.0,Bi-Dy-Ni,3,Dy(NiBi)2
0.0,Dy-Ge-Ni,3,Dy(NiGe)2
0.0,Dy-Ni-P,3,Dy(NiP)2
0.0,Dy-Ni-Sb,3,Dy(NiSb)2
0.0,Dy-O-P,3,Dy(PO)2
5.5999,Dy-O-P,3,Dy(PO3)3
0.0,Dy-P-Pd,3,Dy(PPd)2
0.0,Dy-P-Pt,3,Dy(PPt4)2
0.0,Dy-P-Ru,3,Dy(PRu)2
1.6134,Dy-N-S,3,Dy(SN)3
0.0,Ag-Dy-Si,3,Dy(SiAg)2
0.0,Au-Dy-Si,3,Dy(SiAu)2
0.0,Dy-Ir-Si,3,Dy(SiIr)2
0.0,Dy-Ni-Si,3,Dy(SiNi)2
0.0,Dy-Ni-Si,3,Dy(SiNi5)2
0.0,Dy-Os-Si,3,Dy(SiOs)2
0.0,Dy-Pd-Si,3,Dy(SiPd)2
0.0,Dy-Pt-Si,3,Dy(SiPt)2
0.0,Dy-Rh-Si,3,Dy(SiRh)2
0.0,Dy-Ru-Si,3,Dy(SiRu)2
0.0,Dy-Ga-Ti,3,Dy(TiGa2)2
0.0,Co-Dy-V,3,Dy(VCo5)2
0.0,Dy-Fe-V,3,Dy(VFe5)2
0.2802999999999995,Dy-P-Zn,3,Dy(ZnP)3
0.0,C-Dy-Mn,3,Dy12(MnC3)5
0.0,Bi-Co-Dy,3,Dy12Co5Bi
0.0,Co-Dy-Sn,3,Dy12Co5Sn
0.0,Dy-Ni-Pb,3,Dy12Ni6Pb
0.0,Al-Dy-Ir,3,Dy2(Al3Ir)3
0.0,Al-Dy-Pd,3,Dy2(Al3Pd)3
0.0,Al-Dy-Rh,3,Dy2(Al3Rh)3
0.0,B-Dy-Rh,3,Dy2(B2Rh3)3
0.0,Bi-Dy-O,3,Dy2(BiO2)7
0.0,Co-Dy-Ga,3,Dy2(Ga3Co)3
0.0,Dy-Ga-Ir,3,Dy2(Ga3Ir)3
0.0,Dy-Ga-Rh,3,Dy2(Ga3Rh)3
0.0,Dy-Ga-Ru,3,Dy2(Ga3Ru)3
0.0,Dy-Ge-Pt,3,Dy2(GePt3)3
0.0,Dy-In-Sn,3,Dy2(InSn)3
3.2159000000000004,Dy-Mo-O,3,Dy2(MoO4)3
0.0,B-Dy-Ni,3,Dy2(NiB2)3
3.0307000000000004,Dy-O-Se,3,Dy2(SeO4)3
0.0,Dy-Ir-Si,3,Dy2(SiIr)3
0.0,Dy-Pt-Si,3,Dy2(SiPt)3
3.9072,Dy-O-W,3,Dy2(WO4)3
0.0,Ag-Au-Dy,3,Dy2AgAu
0.0,Ag-Dy-Ir,3,Dy2AgIr
0.0,Ag-Dy-Os,3,Dy2AgOs
0.0,Ag-Dy-Ru,3,Dy2AgRu
0.0,Al-Dy,2,Dy2Al
0.0,Al-Co-Dy,3,Dy2Al3Co
0.0,Al-Cu-Dy,3,Dy2Al3Cu
0.0,Al-Dy-Fe,3,Dy2Al3Fe
0.0,Al-Dy-Fe,3,Dy2Al3Fe14
0.0,Al-Dy-Ge,3,Dy2Al3Ge4
0.0,Al-Dy-Si,3,Dy2Al3Si2
0.0,Al-Dy-Fe,3,Dy2Al5Fe12
0.0,Al-Au-Dy-Si,4,Dy2Al6Si4Au
0.0,Al-Dy-Pt-Si,4,Dy2Al6Si4Pt
0.0,Al-Co-Dy,3,Dy2AlCo2
0.0,Al-Co-Dy,3,Dy2AlCo3
0.0,Al-Dy-Ge,3,Dy2AlGe2
0.0,Al-Dy-Ni,3,Dy2AlNi2
0.0,Al-Dy-Zn,3,Dy2AlZn
0.0,As-Dy-Rh,3,Dy2As7Rh12
0.0,Au-Dy,2,Dy2Au
0.0,B-C-Dy,3,Dy2B4C
5.6245,B-Dy-O,3,Dy2B4O9
0.0,B-Dy-Os,3,Dy2B6Os
0.0,B-Dy-Ru,3,Dy2B6Ru
4.4691,Be-Dy-Ge-O,4,Dy2Be2GeO7
5.089600000000001,Be-Dy-O-Si,4,Dy2Be2SiO7
0.0,Bi-Dy-O,3,Dy2Bi2O7
0.0,Bi-Dy-O,3,Dy2BiO2
0.0,Br-Dy-O,3,Dy2Br2O
0.0,C-Dy,2,Dy2C
3.9833,C-Dy-N-O,4,Dy2C(NO)2
0.0,C-Dy,2,Dy2C3
4.4556,C-Dy-O,3,Dy2CO5
4.4368,C-Dy-O,3,Dy2CO5
0.0,Cd-Cu-Dy,3,Dy2CdCu2
0.0,Cd-Dy-Ge,3,Dy2CdGe2
0.0,Cd-Dy-In,3,Dy2CdIn
0.0,Cd-Dy-Pd,3,Dy2CdPd2
1.0877,Cd-Dy-S,3,Dy2CdS4
0.5809,Cd-Dy-Se,3,Dy2CdSe4
0.0,Cl-Dy-O,3,Dy2Cl2O
0.0,Co-Dy-P,3,Dy2Co12P7
0.0,Co-Dy,2,Dy2Co17
0.0,Co-Dy-I,3,Dy2Co2I
0.0,Co-Dy-Ge,3,Dy2Co3Ge5
0.0,Co-Dy-Si,3,Dy2Co3Si5
0.0,Co-Dy,2,Dy2Co7
0.0,B-Co-Dy,3,Dy2Co7B3
0.0,Co-Dy-Ge,3,Dy2CoGe2
0.0,Co-Dy-Ge,3,Dy2CoGe6
1.7675999999999998,Co-Dy-O-Pt,4,Dy2CoPtO6
0.0,Co-Dy-Si,3,Dy2CoSi2
3.0606,Co-Dy-O-S-Te,5,Dy2CoTe2(SO7)2
0.0,C-Cr-Dy,3,Dy2Cr2C3
2.2242,Cr-Dy-Fe-O,4,Dy2CrFeO6
0.0,Cr-Dy-Ge,3,Dy2CrGe4
1.8942999999999997,Cr-Dy-O-Sb,4,Dy2CrSbO7
0.7202999999999999,Cu-Dy-Ge-O,4,Dy2Cu(GeO3)4
0.6800999999999999,Cu-Dy-Ge-O,4,Dy2Cu(GeO4)2
0.3057999999999999,Cu-Dy-O-S,4,Dy2Cu(SO6)2
1.1438,Cu-Dy-O-Si,4,Dy2Cu(SiO3)4
0.0,Cu-Dy-O,3,Dy2Cu2O5
0.0,Ag-Cu-Dy,3,Dy2CuAg3
0.0,Cu-Dy-Ge,3,Dy2CuGe6
0.0,Cu-Dy-Ir,3,Dy2CuIr
0.0,Cu-Dy-O,3,Dy2CuO4
0.0,Cu-Dy-Os,3,Dy2CuOs
0.0,Cu-Dy-Pt,3,Dy2CuPt
0.0,Cu-Dy-Rh,3,Dy2CuRh
0.0,Cu-Dy-Ru,3,Dy2CuRu
0.0,Cu-Dy-O-Se,4,Dy2CuSe2O
0.8786999999999998,Cu-Dy-O-S-Te,5,Dy2CuTe2(SO7)2
0.0,Dy-Fe-P,3,Dy2Fe12P7
0.0,C-Co-Dy-Fe,4,Dy2Fe15Co2C
0.0,C-Co-Dy-Fe-N,5,Dy2Fe15Co2CN
0.0,C-Dy-Fe-Si,4,Dy2Fe15Si2C
0.0,C-Dy-Fe-N-Si,5,Dy2Fe15Si2CN
0.0,Dy-Fe,2,Dy2Fe17
0.0,C-Dy-Fe,3,Dy2Fe17C
0.0,C-Dy-Fe,3,Dy2Fe17C2
0.0,C-Dy-Fe,3,Dy2Fe17C3
0.0,C-Dy-Fe-N,4,Dy2Fe17CN
0.0,Dy-Fe-N,3,Dy2Fe17N3
0.0,C-Dy-Fe-Si,4,Dy2Fe2Si2C
0.0,Dy-Fe-Ni,3,Dy2Fe3Ni
0.0,Dy-Fe-Si,3,Dy2Fe4Si9
0.0,C-Dy-Fe,3,Dy2FeC4
0.0,Co-Dy-Fe,3,Dy2FeCo3
0.0,Dy-Fe-Ge,3,Dy2FeGe4
0.0,Dy-Fe-Mo-O,4,Dy2FeMoO7
1.7960000000000005,Dy-Fe-O-Sb,4,Dy2FeSbO7
0.0,Dy-Fe-Si,3,Dy2FeSi2
0.0,Dy-Fe-Si,3,Dy2FeSi4
0.0,C-Dy-Fe-Ga,4,Dy2Ga3(Fe7C)2
0.0,Co-Dy-Ga,3,Dy2Ga3Co
0.0,Cu-Dy-Ga,3,Dy2Ga3Cu
0.0,Dy-Ga-Ni,3,Dy2Ga3Ni
0.0,Cu-Dy-Ga,3,Dy2Ga5Cu12
0.0,Co-Dy-Ga,3,Dy2Ga8Co
0.0,Dy-Fe-Ga,3,Dy2Ga8Fe
0.0,Ag-Dy-Ga,3,Dy2GaAg
0.0,Co-Dy-Ga,3,Dy2GaCo2
0.0,Cu-Dy-Ga,3,Dy2GaCu3
0.0,Dy-Ga-Ni,3,Dy2GaNi2
0.0,Dy-Ge-O,3,Dy2Ge2O5
3.8174,Dy-Ge-O,3,Dy2Ge2O7
2.9711,Dy-Ge-O,3,Dy2Ge2O7
3.8575,Dy-Ge-O,3,Dy2Ge2O7
3.5813,Dy-Ge-O,3,Dy2Ge2O7
0.0,Dy-Ge-Ru,3,Dy2Ge2Ru
0.0,Dy-Ge,2,Dy2Ge3
0.0,Dy-Ge-Ir,3,Dy2Ge5Ir3
0.0,Dy-Ge-Rh,3,Dy2Ge5Rh3
0.0,Dy-Ge-Ru,3,Dy2Ge5Ru3
0.0,Dy-Ge-Pd,3,Dy2Ge6Pd
0.0,Dy-Ge-Pt,3,Dy2Ge6Pt
4.0049,Dy-Ge-O,3,Dy2GeO5
3.2281,Dy-Hf-O,3,Dy2Hf2O7
0.0,Dy-In,2,Dy2In
0.0,Cu-Dy-In,3,Dy2In3Cu
0.0,Co-Dy-In,3,Dy2In8Co
0.0,Ag-Dy-In,3,Dy2InAg
0.0,Au-Dy-In,3,Dy2InAu2
0.0,Dy-Ge-In,3,Dy2InGe2
0.0,Dy-Hg-In,3,Dy2InHg
0.0,Dy-In-Ni,3,Dy2InNi2
0.0,Dy-In-Pd,3,Dy2InPd2
0.0,Au-Dy-Ir,3,Dy2IrAu
0.0,Dy-Ir-Pd,3,Dy2IrPd
0.0,Dy-Ir-Rh,3,Dy2IrRh
0.0,Dy-Ir-Ru,3,Dy2IrRu
0.0,Dy-Mg,2,Dy2Mg
0.0766,Cu-Dy-Mg-O,4,Dy2Mg(CuO2)4
0.0,Al-Dy-Mg,3,Dy2MgAl
0.0,Cd-Dy-Mg,3,Dy2MgCd
1.5468000000000002,Cr-Dy-Mg-O,4,Dy2MgCr2O8
0.0,Cu-Dy-Mg,3,Dy2MgCu2
0.0,Dy-Ga-Mg,3,Dy2MgGa
0.0,Dy-Ge-Mg,3,Dy2MgGe2
0.0,Dy-In-Mg,3,Dy2MgIn
1.0263999999999998,Dy-Mg-Mn-O,4,Dy2MgMn4O8
1.7502,Cl-Dy-Mg-Mo-O,5,Dy2MgMo2(ClO4)2
1.7595999999999998,Cl-Dy-Mg-Mo-O,5,Dy2MgMo2(ClO4)2
0.1264000000000003,Dy-Mg-Nb-O,4,Dy2MgNb2O8
0.7464999999999997,Dy-Mg-Nb-O,4,Dy2MgNb2O8
0.3610000000000006,Dy-Mg-Nb-O,4,Dy2MgNb2O8
0.4931000000000001,Dy-Mg-Nb-O,4,Dy2MgNb2O8
0.0,Dy-Mg-Ni,3,Dy2MgNi2
0.0,Dy-Mg-Pd,3,Dy2MgPd2
2.3293,Dy-Mg-S,3,Dy2MgS4
1.9295,Dy-Mg-S,3,Dy2MgS4
1.9213,Dy-Mg-Se,3,Dy2MgSe4
1.2874,Dy-Mg-Se,3,Dy2MgSe4
0.0,Dy-Mg-Si,3,Dy2MgSi2
3.2053,Dy-Mg-O-Ti,4,Dy2MgTiO6
0.0,Dy-Mg-Tl,3,Dy2MgTl
1.4148,Dy-Mg-O-V,4,Dy2MgV2O7
1.4659999999999995,Dy-Mg-O-V,4,Dy2MgV2O7
1.67,Dy-Mg-O-V,4,Dy2MgV2O8
1.6629,Dy-Mg-O-V,4,Dy2MgV2O8
2.4472000000000005,Cl-Dy-Mg-O-W,5,Dy2MgW2(ClO4)2
0.0,Dy-Mn-P,3,Dy2Mn12P7
0.9041,Dy-Mn-O,3,Dy2Mn2O7
0.0,Cu-Dy-Mn-P,4,Dy2Mn3Cu9P7
1.1330999999999998,Dy-Mn-O-Sb,4,Dy2Mn3Sb3O14
0.0,Cr-Dy-Ge-Mn,4,Dy2Mn9(CrGe4)3
0.6013,Co-Dy-Mn-O,4,Dy2MnCoO6
0.3917999999999999,Co-Dy-Mn-O,4,Dy2MnCoO6
0.0,Dy-Ge-Mn,3,Dy2MnGe4
0.5364999999999998,Dy-Mn-Ni-O,4,Dy2MnNiO6
0.3758999999999997,Dy-Mn-O-Sb,4,Dy2MnSbO7
0.0,C-Dy-Mo,3,Dy2Mo2C3
0.0,Dy-Mo-O,3,Dy2Mo2O7
1.8776,Dy-Mo-O,3,Dy2MoO6
0.0,Dy-Nb-O,3,Dy2Nb2O7
1.8805,Dy-Ga-Nb-O,4,Dy2NbGaO7
0.0,As-Dy-Ni,3,Dy2Ni12As7
0.0,Dy-Ni-P,3,Dy2Ni12P7
0.0,Dy-Ni,2,Dy2Ni17
0.0,Dy-Ni-Sn,3,Dy2Ni2Sn
0.0,Dy-Ni,2,Dy2Ni7
0.0,As-Dy-Ni,3,Dy2NiAs2
0.0,B-Dy-Ni,3,Dy2NiB10
0.0,Dy-Ir-Ni,3,Dy2NiIr
0.0,Dy-Ni-Ru,3,Dy2NiRu
0.0,Dy-Ni-O-Ru,4,Dy2NiRuO6
0.0,Dy-Ni-Sb,3,Dy2NiSb4
0.0,Dy-Ni-Sn,3,Dy2NiSn6
1.5409000000000002,Dy-O,2,Dy2O3
4.1997,Dy-O,2,Dy2O3
3.9975,Dy-O,2,Dy2O3
0.0,Dy-O,2,Dy2O3
0.0,C-Dy-Os,3,Dy2OsC2
0.0,Dy-Os-Pd,3,Dy2OsPd
0.0,Dy-P-Rh,3,Dy2P7Rh12
0.9474,Dy-O-Pb,3,Dy2Pb2O7
2.0230999999999995,Dy-Pb-S,3,Dy2PbS4
0.0,Dy-Pb-Pd,3,Dy2Pd2Pb
0.0,Dy-Pd-Pt,3,Dy2PdPt
0.0,Dy-Pd-Rh,3,Dy2PdRh
0.0,Dy-Pd-Ru,3,Dy2PdRu
0.0,Dy-Pt,2,Dy2Pt
1.5345,Dy-O-Pt,3,Dy2Pt2O7
0.0,C-Dy-Re-Si,4,Dy2Re2Si2C
0.0,B-Dy-Re,3,Dy2ReB6
0.0,C-Dy-Re,3,Dy2ReC2
0.0,Dy-O-Ru,3,Dy2Ru2O7
0.0,Dy-Rh-Ru,3,Dy2RuRh
0.0,Dy-F-S,3,Dy2S2F
2.1701,Dy-O-S,3,Dy2S2O
2.5624,Dy-O-S,3,Dy2S2O
0.5937999999999999,Dy-S,2,Dy2S3
0.7389000000000001,Dy-S,2,Dy2S3
3.0076000000000005,Dy-O-S,3,Dy2SO2
2.8611,Dy-O-S,3,Dy2SO2
0.0,Dy-O-Sb,3,Dy2Sb2O7
1.3651,Dy-O-Sb,3,Dy2Sb2O7
0.0,Dy-O-Sb,3,Dy2SbO2
2.2697,Dy-Nb-O-Sc,4,Dy2ScNbO7
0.3663000000000003,Dy-Se,2,Dy2Se3
2.0807999999999995,Dy-O-Se,3,Dy2SeO2
2.1479,Dy-O-Se,3,Dy2SeO2
0.0,Dy-Si,2,Dy2Si3
0.0,Dy-Ni-Si,3,Dy2Si3Ni
0.0,Dy-Pd-Si,3,Dy2Si3Pd
0.0,Dy-Rh-Si,3,Dy2Si3Rh
0.0,Dy-Mo-Si,3,Dy2Si4Mo3
0.0,Dy-Ni-Si,3,Dy2Si5Ni3
0.0,Dy-Rh-Si,3,Dy2Si5Rh3
1.1721999999999992,B-C-Dy-Si,4,Dy2Si9B36C
4.7218,Dy-O-Si,3,Dy2SiO5
4.5384,Dy-O-Si,3,Dy2SiO5
4.163,Dy-O-Si,3,Dy2SiO5
0.0,Dy-Pd-Si,3,Dy2SiPd2
2.5743,Dy-O-Se-Si,4,Dy2SiSeO4
2.7123,Dy-O-Sn,3,Dy2Sn2O7
0.0,Dy-Sn,2,Dy2Sn5
0.0,Dy-Rh-Sn,3,Dy2Sn5Rh3
0.0,Au-Dy-Sn,3,Dy2SnAu2
0.863,Dy-S-Sn,3,Dy2SnS3
0.1715999999999997,Dy-S-Sn,3,Dy2SnS5
0.0,Dy-O-Tc,3,Dy2Tc2O7
3.2417,Dy-O-Te,3,Dy2Te4O11
0.0,Dy-Te,2,Dy2Te5
1.0886000000000005,Dy-O-Te,3,Dy2TeO2
2.5307,Dy-O-Te,3,Dy2TeO6
3.0066,Dy-O-Te,3,Dy2TeO6
3.0392,Dy-O-Te,3,Dy2TeO6
1.8358000000000003,Dy-S-Te,3,Dy2TeS2
1.1998000000000002,Dy-O-Ti,3,Dy2Ti2O7
2.7263,Dy-O-Ti,3,Dy2Ti2O7
0.0,Cu-Dy-O-Ti,4,Dy2TiCuO6