eg,chemsys,nelements,formula
1.7129000000000003,Ag-Co-O-P,4,CoAgPO4
0.0,As-Co,2,CoAs
0.0,As-Co,2,CoAs2
0.1722999999999999,As-Co,2,CoAs2
0.0,As-Co,2,CoAs3
0.0,As-Co-O,3,CoAsO4
0.0,As-Co-Pd,3,CoAsPd
0.0,As-Co-Rh,3,CoAsRh
0.0,As-Co-S,3,CoAsS
0.8512000000000004,As-Co-S,3,CoAsS
0.9413,As-Co-S,3,CoAsS
0.0,As-Co-Se,3,CoAsSe
0.6981999999999999,As-Co-Se,3,CoAsSe
0.3947000000000003,As-Co-Se,3,CoAsSe
0.0,Au-Co,2,CoAu3
0.0,Au-Co,2,CoAu4
0.0,Au-Co-O,3,CoAuO2
0.5045999999999999,Au-Co-O,3,CoAuO2
0.0,Au-Co-O,3,CoAuO3
0.0,B-Co,2,CoB
1.2615999999999996,B-Co-O,3,CoB4O7
0.0,B-Co-Mo,3,CoBMo
0.0,B-Co-O,3,CoBO3
0.1471,B-Co-O,3,CoBO3
1.0667,B-Co-O,3,CoBO3
3.324,B-Co-H-O-P-Pb,6,CoBP2HPbO9
3.2483000000000004,B-Co-H-O-P-Pb,6,CoBP2HPbO9
0.0,B-Co-W,3,CoBW
0.0,Bi-Co,2,CoBi3
2.0761000000000003,As-Bi-Co-O,4,CoBiAsO5
0.3878000000000003,Bi-Co-O,3,CoBiO3
0.0,Bi-Co-O,3,CoBiO3
0.5144000000000002,Bi-Co-O,3,CoBiO4
2.3229999999999995,Bi-Co-O-P,4,CoBiPO5
0.0,Bi-Co-Te,3,CoBiTe
0.0,Br-Co,2,CoBr
0.1072,Br-Co,2,CoBr2
0.4408,Br-Co-N-O,4,CoBr2(N3O)2
0.245,Br-Co-N-O,4,CoBr2(N3O)2
0.0,Br-Co-O,3,CoBrO
0.5972,Br-Co-O,3,CoBrO
0.3914000000000001,C-Cl-Co-N,4,CoC(N3Cl)2
0.0469999999999999,C-Co-N,3,CoC2N3
0.1166999999999998,C-Co-N,3,CoC2N3
0.0,C-Co-N,3,CoCN
0.0,C-Co-N,3,CoCN2
1.5474,C-Co-O,3,CoCO3
0.0,C-Co-O,3,CoCO3
0.0,C-Cl-Co-N-S,5,CoCS(N3Cl)2
0.0910000000000001,Cl-Co,2,CoCl2
0.0843,Cl-Co,2,CoCl2
0.0627999999999997,Cl-Co,2,CoCl2
0.0790999999999999,Cl-Co,2,CoCl2
0.0050999999999998,Co-Cu-O-P,4,CoCu(PO4)2
0.0,B-Co-Cu-O,4,CoCu2(BO3)2
0.0,Co-Cu-Ge-S,4,CoCu2GeS4
0.0,Co-Cu-Ge-Se,4,CoCu2GeSe4
0.0,Co-Cu-O,3,CoCu2O3
0.0,Co-Cu-S-Si,4,CoCu2SiS4
0.0,Co-Cu-Sn,3,CoCu2Sn
0.0,Co-Cu-S-Sn,4,CoCu2Sn3S8
0.0,Co-Cu-S-Sn,4,CoCu2SnS4
0.0,Co-Cu-Se-Sn,4,CoCu2SnSe4
0.0,Co-Cu-O-Te,4,CoCu2TeO6
0.0,Co-Cu-O-P,4,CoCu3(PO4)4
0.0,Co-Cu-Hg-Se,4,CoCu3HgSe4
0.0671999999999997,C-Co-Cu-O,4,CoCuCO5
0.0,Co-Cu-Ni-S,4,CoCuNiS4
0.0645000000000006,Co-Cu-O,3,CoCuO2
0.0,Co-Cu-O-P,4,CoCuP2O7
0.0,Co-Cu-S,3,CoCuS4
2.2721,Co-F,2,CoF2
1.5746,Co-F,2,CoF3
0.1612000000000002,Co-F,2,CoF3
1.6435,Co-F,2,CoF3
1.6382,Co-F,2,CoF3
0.2253000000000002,Co-F,2,CoF3
0.0,Co-F,2,CoF3
0.4727000000000001,Co-F,2,CoF3
1.614,Co-F,2,CoF4
0.0,Co-Ge,2,CoGe
0.0859,Co-F-Ge-O,4,CoGe(OF)6
0.0,Co-Ge,2,CoGe2
0.0,As-Co-Ge,3,CoGeAs2
0.0,Co-Ge-Mo,3,CoGeMo
0.0,Co-Ge-N,3,CoGeN2
0.0,Co-Ge-O,3,CoGeO3
1.5622999999999996,Co-Ge-O,3,CoGeO3
0.0469999999999997,Co-Ge-Te,3,CoGeTe
0.0,Co-H,2,CoH
0.0,Co-H-O-Se,4,CoH10SeO9
3.0715,Cl-Co-H-O,4,CoH12(ClO3)2
0.0,C-Co-H-N-O-Pd,6,CoH12PdC4(NO3)4
2.2936,C-Co-H-N-O,5,CoH14C10(N4O)2
1.6765,C-Co-H-N-O,5,CoH14C2(NO)12
0.0,C-Co-H-N,4,CoH2(CN2)2
3.026,C-Co-H-N-O-Pt,6,CoH20PtC4(NO3)4
0.9142,Cl-Co-H-N-O,5,CoH22N7(ClO2)4
1.6884,Cl-Co-H-N-O,5,CoH22N7(ClO2)4
0.0,C-Co-H-O,4,CoH2CO3
0.8128000000000001,Cl-Co-H-O,4,CoH2Cl2O
1.172,Co-H-O-S,4,CoH2SO5
1.6176,Co-H-O-Se,4,CoH2SeO4
1.8418,Co-H-O-Se,4,CoH2SeO4
1.6716,Co-H-O-Se,4,CoH2SeO5
0.0,Co-H,2,CoH3
4.1766000000000005,C-Co-H-N,4,CoH3(CN)6
0.666,Br-Co-H-O,4,CoH4(BrO)2
2.573,Cl-Co-H-O,4,CoH4(ClO)2
1.6829999999999998,Co-H-N-O,4,CoH4(NO4)2
0.8386,C-Co-H-N-O,5,CoH4C4(NO3)2
1.8879,Co-H-N-O-S,5,CoH4S(NO2)2
0.3467,Cl-Co-H-O-Se,5,CoH4SeClO6
3.0003,Co-H-O-Se,4,CoH4SeO5
2.6538,Co-H-O-Se,4,CoH4SeO5
0.2772,Cl-Co-H-N,4,CoH6(NCl)2
0.2351999999999998,Cl-Co-H-N,4,CoH6(NCl)2
2.3279,Co-H-O-Se,4,CoH6(SeO4)2
1.8544,C-Co-H-N-O-S,6,CoH6C2S2N2O3
1.0447000000000002,C-Co-H-N-O,5,CoH7C3NO6
2.1987,Br-Co-H-O,4,CoH8(BrO2)2
1.6046,C-Co-H-O,4,CoH8(CO2)4
0.4276,C-Co-H-O,4,CoH8(CO5)2
0.5080999999999998,Co-H-I-O,4,CoH8(IO5)2
2.8527,Co-H-I-O,4,CoH8(IO5)2
1.5851,C-Co-H-N-O,5,CoH8C6(N3O)2
3.1919000000000004,Co-F-H-N-O,5,CoH8N2(OF2)2
0.9827,Co-H-N-O-S,5,CoH8S2(NO2)4
2.8895,C-Co-H-N,4,CoH9(CN2)3
1.9825,C-Co-H-O,4,CoHCO3
1.3156,C-Co-H-O,4,CoHCO3
0.3367,Co-H-O,3,CoHO2
0.2849999999999997,Co-H-O,3,CoHO2
0.0,Co-H-O,3,CoHO2
0.4574,Co-H-O,3,CoHO2
0.2809,Co-H-O-S,4,CoHSO4
0.0,Co-Hg,2,CoHg3
0.7991999999999999,C-Co-Hg-N-S,5,CoHgC4(SN)4
0.7723,C-Co-Hg-N-Se,5,CoHgC4(SeN)4
0.0,Co-Hg-S,3,CoHgS4
0.0,Co-I,2,CoI2
0.0,Co-I-N,3,CoI7N6
0.0,Co-Ir,2,CoIr
0.0,Co-Mo,2,CoMo
0.0,Co-Mo,2,CoMo3
0.0,Co-Mo-N,3,CoMo4N5
0.0,Co-Mo-O,3,CoMo4O15
0.0527999999999999,Co-H-Mo-O-Se,5,CoMoH2SeO7
0.0,Co-Mo-N,3,CoMoN3
0.0,Co-Mo-O,3,CoMoO3
0.0,Co-Mo-O,3,CoMoO4
0.0,Co-Mo-P,3,CoMoP
0.0,Co-Mo-P,3,CoMoP2
0.0,Co-N,2,CoN
0.3277000000000001,Co-N,2,CoN12
0.0,Co-N,2,CoN12
0.0,Co-N,2,CoN3
0.3566,Cl-Co-N-O,4,CoN4Cl2O3
0.0,Cl-Co-N-O,4,CoN6(ClO)2
0.4789000000000001,Cl-Co-N-O,4,CoN6(ClO)2
0.0458,Cl-Co-N-O,4,CoN6(ClO)2
0.0,Co-F-N,3,CoNF3
0.0,Co-Ni,2,CoNi
0.0,As-Co-Ni-S,4,CoNi(AsS)2
3.2203000000000004,Co-Ni-O-P,4,CoNi(PO3)4
0.0,Co-Ni-O-P,4,CoNi(PO4)2
0.0,Co-Ni-P-S,4,CoNi(PS3)2
0.0,Co-Ni-S-Sb,4,CoNi(SbS)2
2.8633,Co-Ni-O-P,4,CoNi2(PO4)2
0.0,Co-Ni-Sn,3,CoNi2Sn
0.0,Co-Ni,2,CoNi3
0.0,Co-N-Ni,3,CoNi5N4
0.0,Co-Ni-S,3,CoNi5S8
0.0,As-Co-Ni,3,CoNiAs
0.0,As-Co-Ni,3,CoNiAs2
0.0,As-Co-Ni,3,CoNiAs4
0.0,Co-Ge-Ni,3,CoNiGe
0.0,Co-N-Ni,3,CoNiN
0.0,Co-Ni-O,3,CoNiO2
0.0,Co-Ni-O,3,CoNiO3
0.7645,Co-Ni-O,3,CoNiO3
0.9607,Co-Ni-O,3,CoNiO3
0.0,Co-Ni-P,3,CoNiP
0.0,Co-Ni-Pt,3,CoNiPt2
0.0,Co-Ni-S,3,CoNiS4
0.0,Co-Ni-Sb,3,CoNiSb
0.0,Co-Ni-Sb,3,CoNiSb6
0.0,Co-Ni-Se,3,CoNiSe2
0.0,Co-Ni-Se,3,CoNiSe4
0.0,Co-Ni-Sn,3,CoNiSn
0.0,Co-Ni-Te,3,CoNiTe2
0.0,Co-Ni-Te,3,CoNiTe4
0.0,Co-O,2,CoO
0.7120000000000002,Co-O,2,CoO
0.5880000000000001,Co-O,2,CoO
0.0,Co-O,2,CoO2
0.2007000000000003,Co-O,2,CoO2
0.9901999999999996,Co-O,2,CoO2
1.2544,Co-O,2,CoO2
0.8384999999999999,Co-O,2,CoO2
0.9448,Co-O,2,CoO2
1.0263999999999998,Co-O,2,CoO2
0.3203,Co-O,2,CoO2
0.5904000000000001,Co-O,2,CoO2
1.126,Co-O,2,CoO2
0.0161000000000002,Co-O,2,CoO4
0.2315999999999998,Co-F-O,3,CoOF
0.0,Co-F-O,3,CoOF
0.0,Co-Os,2,CoOs
0.0,Co-P,2,CoP
0.4377999999999993,Co-P,2,CoP2
3.0365,Co-H-O-P,4,CoP2(H4O5)2
2.6244,Co-F-H-N-P,5,CoP2H18(NF2)6
0.0617999999999999,Co-O-P,3,CoP2O7
0.0,Co-O-P,3,CoP2O7
0.0257999999999998,Co-O-P,3,CoP2O7
0.0,Co-P-W,3,CoP2W
2.2724,Co-O-P-W,4,CoP2WO8
2.0195,Co-O-P-W,4,CoP2WO8
0.0,Co-P,2,CoP3
3.3363,Co-H-O-P,4,CoP4(H5O8)2
3.3299000000000003,Co-H-N-O-P,5,CoP4H16(NO8)2
0.0,Co-O-P-W,4,CoP6(WO8)3
3.0208000000000004,Co-H-N-O-P,5,CoPH16NO10
0.0244999999999999,C-Co-H-O-P,5,CoPH3CO4
2.8619,Co-H-N-O-P,5,CoPH6NO5
2.910200000000001,Co-H-N-O-P,5,CoPH6NO5
0.7073,Co-H-N-O-P,5,CoPH6NO5
0.7814,Co-H-N-O-P,5,CoPHNO4
0.5879000000000001,Co-H-O-P,4,CoPHO5
0.0,Co-N-O-P,4,CoPNO10
0.7028,Co-N-O-P,4,CoPNO10
0.0,Co-N-O-P,4,CoPNO5
0.7689999999999999,Co-O-P,3,CoPO4
0.2776999999999998,Co-O-P,3,CoPO4
0.7021,Co-O-P,3,CoPO4
0.94,Co-O-P,3,CoPO4
1.0241,Co-O-P,3,CoPO4
1.1473,Co-O-P,3,CoPO4
1.2167,Co-O-P,3,CoPO4
0.4474,Co-O-P,3,CoPO4
0.9736,Co-O-P,3,CoPO4
0.9819,Co-O-P,3,CoPO4
1.2662,Co-O-P,3,CoPO4
0.7596,Co-O-P,3,CoPO4
1.0727,Co-O-P,3,CoPO4
0.0,Co-F-O-P,4,CoPO4F
0.0,Co-P-Pd,3,CoPPd
1.1231,Co-P-S,3,CoPS
0.0,Co-P-S,3,CoPS3
0.6371000000000002,Co-P-Se,3,CoPSe
0.8658999999999999,Co-P-Se,3,CoPSe
0.0,Co-P-W,3,CoPW
1.87,Co-O-Pb-W,4,CoPb2WO6
0.0,Co-Pb,2,CoPb3
0.0,Co-O-Pb,3,CoPbO3
0.0,Co-Pd,2,CoPd
0.0,Co-Pd,2,CoPd3
0.0,Co-O-Pd,3,CoPdO2
0.0,Co-Pt,2,CoPt
0.0,Co-Pt,2,CoPt2
0.0,Co-Pt,2,CoPt3
1.9373,Co-F-Pt,3,CoPtF6
0.0,Co-N-Pt,3,CoPtN2
0.0,Co-O-Pt,3,CoPtO2
0.0,Co-Re,2,CoRe
0.0,Co-O-Pb-Re,4,CoRe(PbO3)2
2.9872,Co-H-O-Re,4,CoRe2(H2O3)4
0.0613999999999999,Co-Mo-Re-S,4,CoRe2(MoS4)2
0.0,Co-Re,2,CoRe3
0.0,B-Co-Re,3,CoReB
0.0,Co-Ge-Re,3,CoReGe2
0.0,Co-N-Re,3,CoReN2
0.0,Co-O-Re,3,CoReO4
0.0,Co-Rh,2,CoRh
0.0,Co-Rh,2,CoRh3
0.0,Co-O-Rh,3,CoRhO3
0.0,Co-Rh-S,3,CoRhS4
0.0,Co-Ru,2,CoRu
0.0,Co-Ru-S,3,CoRuS4
0.0,Co-S,2,CoS
0.0,Co-S,2,CoS2
0.0,Co-I-S,3,CoSI
2.6388,Co-O-S,3,CoSO4
2.7686,Co-O-S,3,CoSO4
1.8571,Co-O-S,3,CoSO4
0.0,Co-O-S,3,CoSO5
0.0,Co-Sb,2,CoSb
0.0,Co-Sb,2,CoSb2
0.1633000000000004,Co-Sb,2,CoSb3
1.616,Co-O-P-Sb,4,CoSb3(PO4)6
0.2954999999999996,Co-O-Sb,3,CoSbO3
0.1368999999999998,Co-O-Sb,3,CoSbO4
0.0,Co-O-Sb,3,CoSbO4
0.0,Co-Rh-Sb,3,CoSbRh2
0.5517999999999983,Co-S-Sb,3,CoSbS
0.2411000000000012,Co-S-Sb,3,CoSbS
0.0,Co-S-Sb,3,CoSbS
0.3673999999999999,Co-S-Sb,3,CoSbS
0.0,Co-Sb-Se,3,CoSbSe
0.0,Co-Sb-Te,3,CoSbTe
0.0,Co-Se,2,CoSe
0.0,Co-Se,2,CoSe2
2.3763,Co-O-Se,3,CoSe2O5
0.0,Cl-Co-O-Se,4,CoSeClO6
1.852,Co-O-Se,3,CoSeO3
1.6888999999999998,Co-O-Se,3,CoSeO4
1.3657,Co-O-Se,3,CoSeO4
0.0,Co-O-Se,3,CoSeO5
0.4349,Co-O-Se,3,CoSeO5
0.0,Co-S-Se,3,CoSeS
0.0,Co-Si,2,CoSi
0.1072000000000001,Co-F-O-Si,4,CoSi(OF)6
0.0,Co-Si,2,CoSi2
0.4519999999999999,Co-N-Si,3,CoSi2N3
0.0,Co-Ni-Si,3,CoSi4Ni
0.0,Co-Ni-Si,3,CoSi4Ni3
0.2942,Co-N-Si,3,CoSi7N10
0.0,Co-F-H-O-Si,5,CoSiH12(OF)6
0.0,Co-Mo-Si,3,CoSiMo
0.0,Co-N-Si,3,CoSiN2
0.0,Co-Ni-Si,3,CoSiNi
0.9037,Co-O-Si,3,CoSiO4
0.0,Co-Si-W,3,CoSiW
0.0,Co-Sn,2,CoSn
0.1727000000000003,Co-F-O-Sn,4,CoSn(OF)6
0.0,Co-Sn,2,CoSn2
0.0,Co-F-O-Sn,4,CoSn2(OF)6
0.0,Co-Sn,2,CoSn3
0.7442000000000002,Co-O-P-Sn,4,CoSn3(PO4)4
3.0475,C-Cl-Co-O-Sn,5,CoSnC4Cl3O4
2.6481,Co-F-Sn,3,CoSnF6
0.0,Co-F-H-O-Sn,5,CoSnH12(OF)6
0.0,Co-N-Sn,3,CoSnN
0.0,Co-N-Sn,3,CoSnN2
0.0,Co-O-Sn,3,CoSnO3
0.9832,Co-O-Sn,3,CoSnO3
0.0,Co-Rh-Sn,3,CoSnRh2
0.0,Co-Tc,2,CoTc
0.0,Co-Tc,2,CoTc3
0.0,Co-Te,2,CoTe
0.6513999999999998,Co-O-Pb-Te,4,CoTe(PbO2)2
0.8319999999999999,Co-O-Pb-Te,4,CoTe(PbO3)2
0.0,Co-O-Pb-Te,4,CoTe(PbO3)2
0.0,Co-Te,2,CoTe2
1.8424000000000005,Co-O-Te,3,CoTe2O5
0.0,Co-Mo-Te,3,CoTeMo
1.8473,Co-Mo-O-Te,4,CoTeMoO6
0.0,Co-O-Te,3,CoTeO3
0.0,Co-O-Te,3,CoTeO4
0.7254,Co-O-Te,3,CoTeO4
0.0,Co-Se-Te,3,CoTeSe
0.0,Co-W,2,CoW
0.0,Co-W,2,CoW3
0.1728,Co-N-W,3,CoWN3
0.0,Co-O-W,3,CoWO4
0.0,Cr,1,Cr
1.3899,Ag-Cr-O,3,Cr(AgO2)2
1.0282,B-Cr-H,3,Cr(B3H8)2
0.2666,B-Cr-H,3,Cr(B3H8)2
0.0,B-Cr-Mo,3,Cr(BMo)2
0.0,C-Cr-N,3,Cr(C4N3)2
0.0,Cd-Cr-N,3,Cr(CdN)3
2.4182,Cl-Cr-O,3,Cr(ClO)2
0.8511,Cl-Cr-O,3,Cr(ClO2)2
0.0599,Cl-Cr-O,3,Cr(ClO2)3
0.0,Cl-Cr-O,3,Cr(ClO2)3
0.0,Co-Cr-N,3,Cr(CoN)3
0.0,Co-Cr-O,3,Cr(CoO3)2
0.2404999999999999,Co-Cr-O,3,Cr(CoO3)2
0.0,Cr-Cu-O,3,Cr(CuO3)2
0.0,As-Cr-Fe,3,Cr(FeAs3)2
0.0,Cr-Fe-N,3,Cr(FeN)3
0.0,Cr-Fe-Se,3,Cr(FeSe2)2
0.0,Cr-Fe-Te,3,Cr(FeTe2)2
0.0,Cr-Ga-S,3,Cr(GaS2)2
0.6698,Cr-Ge-O,3,Cr(GeO3)2
0.7911,Cr-Ge-O,3,Cr(GeO3)2
0.698,Cr-Ge-O,3,Cr(GeO3)2
0.0,Cr-In-N,3,Cr(InN)3
0.0,Cr-In-S,3,Cr(InS2)2
0.0,Cr-Mo-Se,3,Cr(Mo3Se4)2
0.0,Cr-Mo-S,3,Cr(MoS2)2
0.0594000000000001,Cr-N-O,3,Cr(NO2)2
0.0,Cr-N-O,3,Cr(NO2)2
0.5829,Cr-N-O,3,Cr(NO2)2
0.0,Cr-N-Ni,3,Cr(NiN)3
2.7,Cr-F-O,3,Cr(OF)2
1.3492999999999995,Cr-F-O,3,Cr(OF)3
0.4651999999999998,Cr-F-O,3,Cr(OF)3
1.9037999999999995,Cr-O-P,3,Cr(PO3)2
2.9653,Cr-O-P,3,Cr(PO3)2
3.0545,Cr-O-P,3,Cr(PO3)3
3.3019,Cr-O-P,3,Cr(PO3)3
0.1894999999999999,Cr-O-P,3,Cr(PO3)4
0.1405,Cr-O-P,3,Cr(PO3)4
0.0025,Cr-O-P,3,Cr(PO3)4
0.0,Cr-O-P,3,Cr(PO3)4
0.2052,Cr-O-P,3,Cr(PO4)2
0.0,Cr-N-Pb,3,Cr(PbN)3
0.0,Cr-O-Re,3,Cr(ReO3)2
0.0,Cr-Rh-Se,3,Cr(RhSe2)2
0.0,Cr-O-S,3,Cr(SO4)2
0.0533000000000001,Cr-O-Sb,3,Cr(SbO3)2
0.0,Cr-O-Sb,3,Cr(SbO3)2
1.828,Cr-O-Si,3,Cr(Si2O5)2
0.2263999999999999,Cr-O-Si,3,Cr(SiO3)2
0.0,Cr-N-Sn,3,Cr(SnN)3
0.0,Cr-Rh-Te,3,Cr(Te2Rh)2
0.0,Cr-O-W,3,Cr(WO4)2
1.1247,Cr-O-W,3,Cr(WO4)2
1.4946000000000002,Cr-O-W,3,Cr(WO4)3
0.0,Cr-Fe-O,3,Cr10Fe5O24
0.0,Cr-Sb-Te,3,Cr10Sb3Te7
0.0,Cr-Ni-S,3,Cr11NiS16
0.0,As-C-Cr-N,4,Cr12As4C3N
0.0,As-C-Cr,3,Cr12As5C
0.0,B-Cr-P,3,Cr12BP3
0.0,Cr-P,2,Cr12P7
0.4715999999999996,Cr-Mo-O,3,Cr14MoO24
0.0,B-Cr-W,3,Cr2(BW)3
0.0,C-Cr-N,3,Cr2(CN2)3
0.0,B-Co-Cr,3,Cr2(Co7B2)3
0.0,B-Cr-Ni,3,Cr2(NiB2)3
0.0,Cr-O-P,3,Cr2(PO4)3
0.0,Cr-O-S,3,Cr2(SO4)3
0.0,C-Cr-W,3,Cr20(WC2)3
0.0,C-Cr-Fe,3,Cr21(FeC3)2
0.0,C-Cr-Mo,3,Cr21(MoC3)2
0.0,C-Cr-W,3,Cr21(WC3)2
0.0,C-Cr-Mo,3,Cr22MoC6
0.0,C-Cr-W,3,Cr22WC6
0.0,C-Cr,2,Cr23C6
0.0,C-Cr-P,3,Cr24P11C
1.1141,Ag-Cr-O,3,Cr2Ag2O7
1.4355,Ag-Cr-O,3,Cr2Ag2O7
1.4879999999999998,Ag-Bi-Cr-O,4,Cr2AgBiO8
0.0,Ag-Cr-N,3,Cr2AgN3
0.0,Ag-Cr-S,3,Cr2AgS4
0.0,Ag-Cr-Te,3,Cr2AgTe4
0.0,As-Cr,2,Cr2As
0.0,As-Cr-Se,3,Cr2AsSe
0.0,B-Cr,2,Cr2B
3.0596999999999994,B-Cr-O-P,4,Cr2B(PO4)3
0.0,B-Cr-Ir,3,Cr2B2Ir
0.0,B-Cr,2,Cr2B3
0.0,B-Cr-Os,3,Cr2B3Os
0.0,C-Cr,2,Cr2C
0.0,Cd-Cr-N,3,Cr2Cd3N4
2.8216,Cd-Cr-H-N-O,5,Cr2CdH14(NO2)4
2.8217,Cd-Cr-H-N-O,5,Cr2CdH14(NO2)4
0.0,Cd-Cr-N,3,Cr2CdN2
1.8717,Cd-Cr-O,3,Cr2CdO4
0.0,Cd-Cr-S,3,Cr2CdS4
0.694,Cd-Cr-S-Se,4,Cr2CdSe3S
0.0,Cd-Cr-Se,3,Cr2CdSe4
0.4039999999999999,Cd-Cr-S-Se,4,Cr2CdSeS3
0.0,Co-Cr,2,Cr2Co
0.0,Co-Cr-N,3,Cr2Co3N4
0.0,Co-Cr-Ni-O-P,5,Cr2CoNi3(PO4)6
2.6060000000000003,Co-Cr-O,3,Cr2CoO4
0.0,Co-Cr-P,3,Cr2CoP3
0.0,Co-Cr-S,3,Cr2CoS4
0.0,Co-Cr-S-Se,4,Cr2CoSe3S
0.0,Co-Cr-Se,3,Cr2CoSe4
0.0,Co-Cr-S-Se,4,Cr2CoSeS3
0.0,Co-Cr-Te,3,Cr2CoTe4
0.0941,Cr-Cu-N-O,4,Cr2Cu(NO2)4
0.0,Cr-Cu-S-Se,4,Cr2Cu(SeS)2
1.1062999999999998,Cr-Cu-F-O,4,Cr2Cu3(OF)12
0.9817,Cr-Cu-F-O,4,Cr2Cu3(OF)12
0.0,Cr-Cu-O-P,4,Cr2Cu5(P2O9)2
0.7458,Ag-Cr-Cu-S,4,Cr2CuAgS4
0.0,Cr-Cu-O,3,Cr2CuO4
0.0985999999999998,Cr-Cu-O,3,Cr2CuO4
0.0,Cr-Cu-S,3,Cr2CuS4
0.0,Br-Cr-Cu-Se,4,Cr2CuSe3Br
0.0,Cr-Cu-Se,3,Cr2CuSe4
0.0,Cr-Cu-Te,3,Cr2CuTe4
1.5997,Cr-F,2,Cr2F5
0.0,Cr-Fe,2,Cr2Fe
1.3861,Co-Cr-Fe-O-P,5,Cr2Fe3Co(PO4)6
0.0,Cr-Cu-Fe-O-P,5,Cr2Fe3Cu(PO4)6
0.0,Cr-Fe-N,3,Cr2Fe3N4
0.0,Cr-Fe-Ni-O-P,5,Cr2Fe3Ni(PO4)6
0.0,Cr-Fe-O-P-W,5,Cr2Fe3P6WO24
0.0,Cr-Fe-O-P-Sb,5,Cr2Fe3Sb(PO4)6
0.0291999999999998,Cr-Fe-O-P-Sn,5,Cr2Fe3Sn(PO4)6
0.0,Cr-Fe-O-P-Te,5,Cr2Fe3Te(PO4)6
0.0,Cr-Fe-N,3,Cr2Fe9N8
0.0,Cr-Fe-N-O,4,Cr2FeNO10
0.0,Cr-Fe-O,3,Cr2FeO4
1.5987,Cr-Fe-O,3,Cr2FeO4
2.3214,Cr-Fe-O,3,Cr2FeO4
0.0,Cr-Fe-S,3,Cr2FeS4
0.0,Cr-Fe-S-Se,4,Cr2FeSe3S
0.0,Cr-Fe-Se,3,Cr2FeSe4
0.0,Cr-Fe-S-Se,4,Cr2FeSeS3
0.0,Cr-Fe-Te,3,Cr2FeTe4
0.0,C-Cr-Ga,3,Cr2GaC
0.0,Cr-Ga-N,3,Cr2GaN
0.0,Cr-Ga-S,3,Cr2GaS4
0.0,C-Cr-Ge,3,Cr2GeC
2.7482,Cr-H-N-O,4,Cr2H8N2O7
0.0,Cr-H-O,3,Cr2HO4
0.0001999999999999,Cr-H-O,3,Cr2HO4
1.8064,Cr-H-Hg-O,4,Cr2Hg2H2O9
0.3965000000000001,Cr-Hg-O,3,Cr2Hg2O9
1.2575000000000005,Cr-Hg-O,3,Cr2HgO4
1.9827,Cr-Hg-O,3,Cr2HgO7
0.0,Cr-Hg-S,3,Cr2HgS4
0.2728000000000001,Cr-Hg-S-Se,4,Cr2HgSe3S
0.0,Cr-Hg-Se,3,Cr2HgSe4
0.0,Cr-In-Pd,3,Cr2InPd2
0.0,Cr-In-S,3,Cr2InS4
0.0,C-Cr-Ir,3,Cr2Ir2C
0.0,Cr-Ir-O,3,Cr2Ir2O5
0.0,Cr-Mo-P,3,Cr2MoP3
0.0,Cr-N,2,Cr2N
0.2802,Cr-N-O,3,Cr2N2O7
0.2008999999999998,Cr-N-O,3,Cr2N2O7
0.0,Cr-Ni,2,Cr2Ni
0.0,Cr-N-Ni,3,Cr2Ni3N4
0.0,Cr-Ni-O-P-Sb,5,Cr2Ni3Sb(PO4)6
0.0,Cr-N-Ni,3,Cr2NiN2
2.6197000000000004,Cr-Ni-O,3,Cr2NiO4
2.7948,Cr-Ni-O,3,Cr2NiO4
2.322,Cr-Ni-O,3,Cr2NiO4
0.0,Cr-Ni-O,3,Cr2NiO4
0.0,Cr-Ni-S,3,Cr2NiS4
0.0,Cr-Ni-Se,3,Cr2NiSe4
0.0,Cr-O,2,Cr2O
0.5851000000000002,Cr-O,2,Cr2O3
1.2217000000000002,Cr-O,2,Cr2O3
0.0,Cr-O,2,Cr2O3
2.3438,Cr-O,2,Cr2O3
1.8986999999999996,Cr-O,2,Cr2O3
0.6394000000000001,Cr-O,2,Cr2O5
0.5167000000000002,Cr-O,2,Cr2O5
0.0,Cr-O,2,Cr2O5
0.516,Cr-O,2,Cr2O5
0.0,Cr-F-O,3,Cr2OF2
0.8505,Cr-F-O,3,Cr2OF2
0.0,Cr-P,2,Cr2P
0.0,Cr-O-P,3,Cr2P3O10
0.0,Cr-O-P,3,Cr2P3O11
0.0395,Cr-H-O-P,4,Cr2P4H3O16
1.9593,Br-Cr-O-P,4,Cr2PBrO4
0.7838000000000003,Cr-O-P,3,Cr2PO5
0.6496000000000004,Cr-O-P,3,Cr2PO5
0.9123,Cr-O-P,3,Cr2PO5
0.0,Cr-N-Pb,3,Cr2Pb3N4
0.0,C-Cr-Pt,3,Cr2Pt2C
0.0801999999999996,Cr-O-Re,3,Cr2ReO6
0.0,C-Cr-Rh,3,Cr2Rh2C
0.0,Br-Cl-Cr-S,4,Cr2S2BrCl
0.0,Cr-S,2,Cr2S3
0.2027000000000001,Cr-S,2,Cr2S5
0.0,Cr-N-S,3,Cr2SN2
0.0,As-Cr-Sb,3,Cr2SbAs
0.0,Cr-Sb-Te,3,Cr2SbTe
0.0,Cr-Se,2,Cr2Se3
0.0,Cr-N-Se,3,Cr2SeN2
0.0,Cr-S-Se,3,Cr2SeS
0.0,C-Cr-Si,3,Cr2SiC
1.9961,Cr-O-Si,3,Cr2SiO4
0.0,Au-Cr-Sn,3,Cr2Sn9Au
0.0,Cr-O-P-Te,4,Cr2Te(PO4)3
0.0618999999999999,Cr-N-O-Te,4,Cr2Te2N2O15
1.4242,Cr-O-Te,3,Cr2TeO6
0.0,Cr-Se-Te,3,Cr2TeSe
1.6095999999999997,Cr-O-W,3,Cr2WO6
0.0,Cr-Fe-O,3,Cr3(FeO4)2
1.6062,Cr-Fe-O,3,Cr3(FeO6)2
0.0,Cr-Ga-N,3,Cr3(GaN2)2
0.0,C-Cr-Mo,3,Cr3(MoC2)2
1.5592,Cr-F-O,3,Cr3(OF)2
1.263,Cr-O-P,3,Cr3(P2O7)2
1.1240000000000006,Cr-O-P,3,Cr3(P2O7)2
1.9389,Cr-O-P,3,Cr3(PO4)2
1.1944000000000004,Cr-O-P,3,Cr3(PO4)2
0.0,Cr-Se-Te,3,Cr3(TeSe)2
0.0,C-Cr-W,3,Cr3(W10C3)2
1.0406,Ag-Cr-O,3,Cr3AgO8
0.0,As-Cr,2,Cr3As
0.0,As-C-Cr,3,Cr3AsC
0.0,As-Cr-N,3,Cr3AsN
0.6896,Au-Cr-O,3,Cr3AuO8
0.0,B-Cr-Rh,3,Cr3B12Rh25
0.0,B-Cr,2,Cr3B4
0.0,B-Cr-Mo,3,Cr3B4Mo3
2.4249,B-Br-Cr-O,4,Cr3B7BrO13
2.7083,B-Cl-Cr-O,4,Cr3B7ClO13
1.7271999999999998,B-Cr-I-O,4,Cr3B7IO13
3.1891000000000003,B-Cr-F-O,4,Cr3B7O13F
0.1785000000000005,B-Cr-O,3,Cr3BO6
0.0,C-Cr,2,Cr3C
0.0,C-Cr,2,Cr3C2
0.0,Cd-Cr-Te,3,Cr3CdTe4
0.0,Co-Cr,2,Cr3Co
0.4500999999999999,Co-Cr-O-P,4,Cr3Co(PO4)4
0.0,Co-Cr-O-P,4,Cr3Co(PO4)6
0.0,Co-Cr,2,Cr3Co2
0.0,Co-Cr-O-Sb,4,Cr3Co3(SbO8)2
0.0,Co-Cr-O-Te,4,Cr3Co3(TeO8)2
0.0,Co-Cr-O,3,Cr3Co5O16
0.0,Co-Cr-O-P-Te,5,Cr3CoTe2(PO4)6
0.0,Cr-Cu,2,Cr3Cu
0.0,Cr-Cu-O-P,4,Cr3Cu(PO4)4
0.0,Cr-Cu-Ni-Se,4,Cr3Cu2NiSe8
0.0,Cr-Cu-S-Sb,4,Cr3Cu2SbS8
0.4887999999999999,Cr-Cu-O,3,Cr3CuO8
0.0,Cr-Fe,2,Cr3Fe
0.0,Cr-Fe-O-P,4,Cr3Fe(PO4)6
0.0,Cr-Fe-O-Sb,4,Cr3Fe2Sb3O16
0.0,Cr-Fe-O-Te,4,Cr3Fe3(TeO8)2
0.0,As-Cr-Fe-Ge,4,Cr3Fe3GeAs2
0.0,As-Cr-Fe-Si,4,Cr3Fe3SiAs2
0.0,As-Cr-Fe,3,Cr3FeAs4
0.0,Cr-Ga,2,Cr3Ga
0.0,Cr-Ga,2,Cr3Ga4
0.0,As-Cr-Fe-Ga,4,Cr3GaFe3As2
0.0,Cr-Ga-N,3,Cr3GaN
0.0,Cr-Ga-P,3,Cr3GaP4
0.0,Cr-Ge,2,Cr3Ge
0.0,C-Cr-Ge,3,Cr3GeC
0.0,Cr-Ge-N,3,Cr3GeN
0.0,Cr-H,2,Cr3H
0.0,Cr-H-O,3,Cr3HO8
0.0,Co-Cr-In-S,4,Cr3In(CoS4)2
0.0,Cr-In-O,3,Cr3InO8
0.0,Cr-Ir,2,Cr3Ir
0.0,Cr-Ir-N,3,Cr3IrN
0.0,Cr-Mo,2,Cr3Mo
0.0,Cr-N,2,Cr3N2
0.0,Cr-N,2,Cr3N4
0.4703999999999999,Cr-N-O,3,Cr3NO8
0.0,Cr-Ni,2,Cr3Ni
0.0099,Cr-Ni-O-P,4,Cr3Ni(PO4)4
0.0,Cr-Ni-O-P,4,Cr3Ni(PO4)6
0.0,Cr-Ni-O-S,4,Cr3Ni(SO4)6
0.0,B-Cr-Ni,3,Cr3NiB6
0.0,Cr-Ni-P,3,Cr3NiP4
0.0,Cr-Ni-Sb,3,Cr3NiSb4
0.0,Cr-Ni-Sn,3,Cr3NiSn8
0.0,Cr-Ni-O-P-Te,5,Cr3NiTe2(PO4)6
0.0,Cr-O,2,Cr3O
1.4759999999999995,Cr-O,2,Cr3O4
0.7244000000000002,Cr-O,2,Cr3O4
0.6983999999999999,Cr-O,2,Cr3O5
0.0,Cr-O,2,Cr3O8
0.5890000000000001,Cr-O,2,Cr3O8
0.1223999999999999,Cr-O,2,Cr3O8
0.5108999999999999,Cr-O,2,Cr3O8
0.0,Cr-Os,2,Cr3Os
0.0,Cr-P,2,Cr3P
0.0,Cr-O-P,3,Cr3P3O13
0.0225999999999999,Cr-O-P-W,4,Cr3P6WO24
0.0,C-Cr-P,3,Cr3PC
0.0,Cr-N-P,3,Cr3PN
0.0,Cr-N-Pb,3,Cr3Pb3N5
0.0,Cr-N-Pd,3,Cr3PdN
0.0,Cr-Pt,2,Cr3Pt
0.0,Cr-N-Pt,3,Cr3PtN
0.0,Cr-Rh,2,Cr3Rh
0.0,Cr-Rh-S,3,Cr3Rh3S8
0.0,Cr-N-Rh,3,Cr3RhN
0.0,Cr-Ru,2,Cr3Ru
0.0,C-Cr-Ru,3,Cr3Ru3C2
0.0,Cr-S,2,Cr3S4
0.6692,Cr-O-P-Sb,4,Cr3Sb(PO4)4
0.0055,Cr-O-P-Sb,4,Cr3Sb(PO4)6
1.3007,Cr-O-Sb-Te,4,Cr3Sb3(TeO8)2
0.2157,Cr-O-Sb,3,Cr3Sb5O16
0.0,As-Cr-Sb,3,Cr3SbAs2
0.0352000000000001,Cr-O-Sb,3,Cr3SbO8
0.0,Cr-Se,2,Cr3Se
0.0,Cr-Se,2,Cr3Se4
0.0,Cr-Si,2,Cr3Si
0.0,Cr-Mo-Si,3,Cr3Si2Mo3
0.0,Cr-Si,2,Cr3Si5
0.0282,Cr-N-Si,3,Cr3Si6N11
0.0,Cr-Ni-Si,3,Cr3SiNi2
0.3979999999999997,Cr-O-Sb-Sn,4,Cr3Sn2Sb3O16
0.1939999999999999,Cr-O-Sb-Sn,4,Cr3Sn3(SbO8)2
0.4558,Cr-O-Sb-Sn,4,Cr3Sn3(SbO8)2
0.0,Cr-N-Sn,3,Cr3SnN
0.0,Cr-S-Sn,3,Cr3SnS8
0.0,Cr-Te,2,Cr3Te4
0.0,Cr-Te,2,Cr3Te5
0.0,Cr-O-Te,3,Cr3TeO8
0.4041999999999999,Cr-O-W,3,Cr3WO8
0.0,Cr-Cu-O,3,Cr4(CuO4)3
0.0,Cr-F-O,3,Cr4(OF3)3
0.7197,Cr-F-O,3,Cr4(OF3)3
0.0,Cr-O-P,3,Cr4(PO4)3
0.0,Cr-S-Se,3,Cr4(SeS)3
1.7973,Ag-Bi-Cr-O,4,Cr4AgBiO14
0.0,As-Cr,2,Cr4As3
0.0,B-Cr,2,Cr4B
0.0,C-Cr-N,3,Cr4CN4
0.0,Ag-Cd-Cr-Se,4,Cr4CdAgSe8
0.0,Cd-Co-Cr-S,4,Cr4CdCoS8
0.0,Cd-Cr-Cu-O,4,Cr4CdCuO8
0.0,Cd-Cr-Fe-S,4,Cr4CdFeS8
2.2862,Co-Cr-O-P,4,Cr4Co3(PO4)6
0.0,Co-Cr-Cu-S,4,Cr4CoCuS8
0.0,Co-Cr-Ni-S,4,Cr4CoNiS8
0.2974000000000001,Cr-Cu-O-P,4,Cr4Cu3(PO4)6
0.0,Cr-Cu-Se,3,Cr4Cu3Se8
0.0,Cr-Cu-Te,3,Cr4Cu3Te8
0.0,Cr-Cu-Ni-Se,4,Cr4CuNiSe8
0.0,Cr-Cu-O,3,Cr4CuO12
0.0,Co-Cr-Fe-S,4,Cr4FeCoS8
0.0,Cr-Cu-Fe-S-Se,5,Cr4FeCu(SeS)4
0.0,Cr-Cu-Fe-S,4,Cr4FeCuS8
0.0,Cr-Cu-Fe-Se,4,Cr4FeCuSe8
0.0,Cr-Fe-Ni-S,4,Cr4FeNiS8
0.0,Cr-Cu-Ga-S,4,Cr4GaCuS8
0.0,Cr-Cu-Ga-Se,4,Cr4GaCuSe8
0.0,Cr-Ga-S,3,Cr4GaS8
0.0,Ag-Cr-In-S,4,Cr4InAgS8
9.999999999976694e-05,Ag-Cr-In-Se,4,Cr4InAgSe8
0.0,Cr-Cu-In-S,4,Cr4InCuS8
0.0,Cr-Cu-In-Se,4,Cr4InCuSe8
0.0,Cr-Ni,2,Cr4Ni
0.1074,Cr-O,2,Cr4O9
1.0593,Cr-F-O,3,Cr4OF11
0.0,Cr-F-O,3,Cr4OF11
0.4846999999999999,Cr-F-O,3,Cr4OF11
0.4852999999999999,Cr-F-O,3,Cr4OF11
0.9814,Cr-F-O,3,Cr4OF11
0.712,Cr-F-O,3,Cr4OF11
0.9174,Cr-F-O,3,Cr4OF11
0.9226,Cr-F-O,3,Cr4OF11
0.9371,Cr-F-O,3,Cr4OF11
0.1927000000000001,Cr-F-O,3,Cr4OF11
0.4854,Cr-F-O,3,Cr4OF11
0.486,Cr-F-O,3,Cr4OF11
0.9281,Cr-F-O,3,Cr4OF11
0.9148,Cr-F-O,3,Cr4OF11
0.4855,Cr-F-O,3,Cr4OF11
0.9155,Cr-F-O,3,Cr4OF11
0.8311999999999999,Cr-F-O,3,Cr4OF11
0.4849,Cr-F-O,3,Cr4OF11
1.2968000000000002,Cr-F-O,3,Cr4OF6
0.0,Cr-N-O-P,4,Cr4PN3O16
0.0,Cr-N-S,3,Cr4S3N2
0.0,Cr-N-Se,3,Cr4Se3N2
1.1174000000000004,Cr-O-Si,3,Cr4Si4O13
0.0,Cr-S-Te,3,Cr4Te3S
0.0,Cr-Se-Te,3,Cr4Te3Se
0.0,Cr-Ge-N,3,Cr5(GeN3)2
0.0,Cr-O-P,3,Cr5(PO4)4
0.7892999999999999,Cr-O-Si,3,Cr5(Si2O7)2
0.0,Cr-O-Si,3,Cr5(Si2O7)2
0.0203999999999995,Cr-N-Si,3,Cr5(SiN3)2
0.0,Cr-Se-Te,3,Cr5(Te3Se)2
0.0,As-Cr,2,Cr5As3
0.0,B-Cr-P,3,Cr5B2P
0.0,B-Cr,2,Cr5B3
0.5470999999999995,Cr-Cu-Ge-O,4,Cr5Cu(GeO6)2
0.0,Cr-Cu-O-P,4,Cr5Cu2(PO4)6
0.0,Cr-Ge,2,Cr5Ge3
0.1345999999999998,Cr-In-S,3,Cr5InS8
0.0,Cr-In-Se,3,Cr5InSe8
0.0,As-Cr-Ni,3,Cr5NiAs3
0.0,Cr-Ni-S,3,Cr5NiS8
0.0,Cr-Ni-Sn,3,Cr5NiSn12
0.7811999999999997,Cr-O,2,Cr5O7