eg,chemsys,nelements,formula
0.0,Au-Bi,2,Bi4Au
0.1560000000000001,Bi-F-O,3,Bi4O3F7
0.3547000000000002,Bi-O,2,Bi4O5
0.5580000000000007,Bi-O,2,Bi4O5
2.872,Bi-F-O,3,Bi4O5F2
0.0,Bi-O,2,Bi4O7
0.9108,Bi-O,2,Bi4O7
0.0,Bi-O,2,Bi4O9
0.0,Bi-P-Pd,3,Bi4PPd15
0.0,Bi-Cl-O-Pb,4,Bi4Pb(ClO3)2
1.1239,Bi-Pb-S,3,Bi4PbS7
0.5357000000000003,Bi-Br-Ru,3,Bi4RuBr2
0.8216999999999999,Bi-N-S,3,Bi4S3N2
0.5132999999999992,Bi-N-S,3,Bi4S3N2
0.0,Bi-Se,2,Bi4Se3
0.3054999999999994,Bi-N-Se,3,Bi4Se3N2
0.4481000000000001,Bi-N-Se,3,Bi4Se3N2
1.8311,Bi-Br-O-Te,4,Bi4Te2Br2O9
0.8599999999999994,Bi-Br-O-Te,4,Bi4Te2Br2O9
0.0,Bi-Te,2,Bi4Te3
0.3772999999999999,Bi-N-Te,3,Bi4Te3N2
0.4221000000000003,Bi-Pb-Te,3,Bi4Te7Pb
2.4304,Bi-I-O,3,Bi5IO7
2.9694000000000003,As-Bi-O-Pb,4,Bi6As4PbO20
2.7798000000000003,Bi-F-O,3,Bi6O5F8
3.3332,Bi-O-P-Pb,4,Bi6P4PbO20
2.1923,Bi-O-W,3,Bi6W4O21
3.9069,Bi-F-O,3,Bi7O5F11
0.0,Bi-I-Pt,3,Bi8Pt5I3
0.0,As-Bi-Os,3,BiAs2Os
0.0,As-Bi-O,3,BiAsO2
3.1697,As-Bi-O,3,BiAsO4
2.8719,As-Bi-O,3,BiAsO4
0.0259,As-Bi-O,3,BiAsO5
2.2678,As-Bi-O-Pb,4,BiAsPbO5
0.0,As-Bi-Pd,3,BiAsPd6
0.0,Au-Bi,2,BiAu
0.0,Au-Bi,2,BiAu2
1.0829,Au-Bi-O,3,BiAuO2
0.0922,B-Bi,2,BiB
0.0,B-Bi,2,BiB
4.1919,B-Bi-F-O,4,BiB2O4F
0.0,B-Bi-O,3,BiB2O5
4.2330000000000005,B-Bi-H-O,4,BiB4(HO3)3
0.0,B-Bi,2,BiB6
0.0,B-Bi-Cl,3,BiBCl
3.0096,B-Bi-O,3,BiBO3
3.2025,B-Bi-F-O,4,BiBOF4
2.8053000000000003,B-Bi-O-Pb,4,BiBPbO4
2.8773,B-Bi-O-Pb,4,BiBPbO4
2.0872,B-Bi-Pb-S,4,BiBPbS4
0.0,B-Bi-Te,3,BiBTe
2.8692,Bi-Br,2,BiBr3
2.2251,Bi-Br-O,3,BiBrO
0.0,Bi-C-O,3,BiC2O5
2.3915,Bi-C-N-O,4,BiCNO
1.4110999999999998,Bi-C-O,3,BiCO3
3.3934,Bi-Cl,2,BiCl3
2.1059,Bi-Cl-F,3,BiClF8
2.5681000000000003,Bi-Cl-O,3,BiClO
4.6808,Bi-F,2,BiF3
3.9663,Bi-F,2,BiF3
3.9562,Bi-F,2,BiF3
5.074400000000001,Bi-F,2,BiF3
0.6554,Bi-F,2,BiF4
0.4034,Bi-F,2,BiF5
1.8671,Bi-F,2,BiF5
0.0,Bi-F,2,BiF5
1.7609,Bi-F,2,BiF5
1.8138,Bi-F,2,BiF5
3.659,Bi-H-O-Se,4,BiH(SeO3)2
0.0,Bi-H,2,BiH3
0.8279000000000001,Bi-I,2,BiI
0.0,Bi-I,2,BiI3
2.2293000000000003,Bi-I,2,BiI3
2.5349,Bi-I,2,BiI3
2.4854,Bi-I,2,BiI3
1.473,Bi-I-O,3,BiIO
2.3939999999999992,Bi-I-O,3,BiIO4
0.6889999999999992,Bi-Ir-S,3,BiIrS
0.5346000000000002,Bi-Ir-Se,3,BiIrSe
0.0,Bi-Mo-O,3,BiMoO2
0.0,Bi-Mo-O,3,BiMoO3
0.0,Bi-Mo-Rh,3,BiMoRh
0.0,Bi-N,2,BiN
0.8527000000000005,Bi-N,2,BiN
0.8331,Bi-N,2,BiN
0.0,Bi-F-N,3,BiNF4
0.0,Bi-O,2,BiO
0.0,Bi-O,2,BiO2
0.5188999999999999,Bi-O,2,BiO2
0.8823000000000001,Bi-O,2,BiO2
1.1596000000000002,Bi-O,2,BiO2
2.3766000000000003,Bi-F-O,3,BiOF
2.6762,Bi-F-O,3,BiOF
3.1303,Bi-F-O,3,BiOF
3.3088,Bi-F-O,3,BiOF
3.3538,Bi-F-O,3,BiOF
3.0514,Bi-F-O,3,BiOF
2.6413,Bi-F-O,3,BiOF
2.8878000000000004,Bi-F-O,3,BiOF
2.4354000000000005,Bi-F-O,3,BiOF
2.5742000000000003,Bi-F-O,3,BiOF
2.9652000000000003,Bi-F-O,3,BiOF
2.2789,Bi-F-O,3,BiOF
3.2552000000000003,Bi-F-O,3,BiOF
1.4727,Bi-F-O,3,BiOF3
0.4771999999999998,Bi-Os-Se,3,BiOsSe
2.5522,Bi-O-P-Pb,4,BiP(PbO2)4
0.0,Bi-O-P,3,BiP2O7
0.0,Bi-N-O-P,4,BiP3NO10
4.9887,Bi-H-O-P,4,BiP4HO12
3.7758,Bi-O-P,3,BiPO4
4.0348,Bi-O-P,3,BiPO4
2.0415,Bi-O-P,3,BiPO4
3.6893,Bi-O-P,3,BiPO4
4.1861,Bi-O-P,3,BiPO4
0.0,Bi-O-P,3,BiPO5
3.3519000000000005,Bi-O-P-Pb,4,BiPPbO5
0.0,Bi-Pb,2,BiPb
2.5946,Bi-F-Pb,3,BiPb2F7
0.0,Bi-Pb,2,BiPb4
1.5539000000000005,Bi-Br-O-Pb,4,BiPbBrO2
2.0737,Bi-Cl-O-Pb,4,BiPbClO2
4.297000000000001,Bi-F-Pb,3,BiPbF5
1.7164,Bi-I-O-Pb,4,BiPbIO2
2.1578,Bi-F-O-Pb,4,BiPbO2F
0.0,Bi-Pd,2,BiPd
0.0,Au-Bi-Pd,3,BiPd2Au
0.0,Bi-Pb-Pd,3,BiPd2Pb
0.0,Bi-Pd,2,BiPd3
0.0,Bi-Pb-Pd,3,BiPd6Pb
0.0,Bi-Pd-Se,3,BiPd6Se
0.0,Bi-Pd-Se,3,BiPdSe
0.0,Bi-Pt,2,BiPt
0.0,Bi-Pb-Pt,3,BiPt2Pb
0.0,Bi-Pt,2,BiPt3
0.0,Bi-O-Pt,3,BiPtO14
0.0,Bi-O-Pt,3,BiPtO3
0.0,Bi-Pt-Se,3,BiPtSe
0.0,Bi-Rh,2,BiRh
0.4103000000000003,Bi-O-Rh,3,BiRhO3
0.3403999999999998,Bi-Rh-S,3,BiRhS
0.2379999999999995,Bi-Rh-Se,3,BiRhSe
0.0,Bi-O-Ru,3,BiRu2O7
0.0,Bi-S,2,BiS
0.0,Bi-S,2,BiS2
1.066599999999999,Bi-S,2,BiS2
0.0,Bi-S,2,BiS3
2.032,Bi-Br-S,3,BiSBr
1.9636000000000005,Bi-Cl-S,3,BiSCl
1.8669,Bi-I-S,3,BiSI
0.1101,Bi-Sb,2,BiSb
0.0,Bi-Os-Sb,3,BiSb2Os
2.1691,Bi-F-Sb,3,BiSb3F20
2.1066000000000003,Bi-O-Sb,3,BiSbO3
2.4246,Bi-O-Sb,3,BiSbO4
0.0,Bi-Pd-Sb,3,BiSbPd2
0.0,Bi-Pt-Sb,3,BiSbPt
0.0,Bi-Pt-Sb,3,BiSbPt2
0.4796999999999993,Bi-Sb-Te,3,BiSbTe2
0.2132999999999993,Bi-Sb-Te,3,BiSbTe3
1.2310999999999996,Bi-O-Sb-W,4,BiSbWO6
0.0,Bi-Se,2,BiSe
0.6721000000000004,Bi-Se,2,BiSe2
1.6912,Bi-Br-Se,3,BiSeBr
1.8404000000000005,Bi-Cl-Se,3,BiSeCl
3.6197,Bi-Cl-O-Se,4,BiSeClO3
3.5272,Bi-Cl-O-Se,4,BiSeClO3
1.5764000000000005,Bi-I-Se,3,BiSeI
0.0,Bi-Te,2,BiTe
0.0,Au-Bi-Pb-S-Te,5,BiTe2Pb2AuS3
0.0,Bi-Te,2,BiTe3
1.2364000000000002,Bi-Br-Te,3,BiTeBr
1.5135,Bi-Cl-Te,3,BiTeCl
1.2325,Bi-I-Te,3,BiTeI
0.0,Bi-I-O-Te,4,BiTeIO3
0.4748000000000001,Bi-Ir-Te,3,BiTeIr
0.0,Bi-Ir-Te,3,BiTeIr
0.3079999999999998,Bi-N-Te,3,BiTeN
2.8005,Bi-N-O-Te,4,BiTeNO6
2.2018999999999997,Bi-O-Te,3,BiTeO4
2.1729000000000003,Bi-O-Te,3,BiTeO4
2.2615000000000007,Bi-O-Te,3,BiTeO4
0.0,Bi-Pd-Te,3,BiTePd
0.0,Bi-Pt-Te,3,BiTePt
0.1620000000000008,Bi-Rh-Te,3,BiTeRh
0.0,Bi-O-W,3,BiWO2
1.3733000000000004,Bi-O-W,3,BiWO4
1.9598,Bi-F-Xe,3,BiXeF9
0.0,Br,1,Br
0.0,Br-Cl,2,Br2Cl3
1.3935000000000002,Br-O,2,Br2O
0.0,Br-N,2,Br3N
1.8129,Br-Cl,2,BrCl
1.832,Br-Cl,2,BrCl
1.3235,Br-Cl,2,BrCl
1.1661,Br-Cl-O,3,BrClO
2.211,Br-F,2,BrF3
3.4507,Br-F,2,BrF5
0.0,Br-N,2,BrN
2.3401,Br-F-N-O,4,BrN(OF2)2
0.2603999999999999,Br-N,2,BrN4
1.3158,Br-N-O,3,BrNO
1.1344,Br-N-O,3,BrNO
2.208,Br-N-O,3,BrNO3
0.0,Br-O,2,BrO
0.0,Br-O,2,BrO2
2.6322,Br-F-O,3,BrO2F
0.0,Br-O,2,BrO3
0.7772999999999999,Br-O,2,BrO4
0.0,C,1,C
2.3454,C,1,C
0.0001000000000002,C,1,C
3.3272999999999997,C,1,C
3.4876000000000005,C,1,C
0.3717999999999999,C,1,C
2.5933,C,1,C
4.3505,C,1,C
0.0667999999999999,C,1,C
4.1977,C,1,C
0.0945999999999998,C,1,C
2.407,C,1,C
0.1021,C,1,C
0.2440999999999999,C,1,C
3.3394999999999992,C,1,C
0.0281000000000002,C,1,C
0.0148,C,1,C
0.1056000000000001,C,1,C
4.5686,C,1,C
4.3842,C,1,C
3.0059000000000005,C,1,C
4.5214,C,1,C
4.399799999999999,C,1,C
4.3668,C,1,C
4.1145,C,1,C
1.6096,C,1,C
0.0123999999999999,C,1,C
9.9999999999989e-05,C,1,C
5.7111,C-Cl-F,3,C(ClF)2
5.6634,C-Cl-F,3,C(ClF)2
0.0,C-N-O,3,C(N2O)2
2.434899999999999,C-N,2,C11N4
0.0,C-N,2,C11N4
4.4176,C-F-O,3,C2(OF2)3
2.9805,Br-C-N-O,4,C2BrNO
0.0,Br-C-N-O,4,C2BrNO
2.2087,C-N-O,3,C2N2O
3.4261,C-N-O,3,C2N2O5
3.3867000000000003,C-N-O,3,C2N2O5
0.0,C-N,2,C2N3
0.0,C-Cl-N,3,C2NCl
1.5194,C-Cl-N,3,C2NCl
3.3975,C-Cl-N-O,4,C2NClO
1.8808,C-S,2,C2S3
4.0187,C-F-S,3,C2SF6
4.3393,C-F-S,3,C2SF6
4.3293,C-F-N-O-S,5,C2SNOF
3.4329,C-N-Se,3,C2SeN2
1.4592,C-Cl-O,3,C3Cl2O
2.7303,C-F-I,3,C3IF2
1.9388,C-I-N,3,C3IN
0.9571,C-I-N,3,C3IN
0.0,C-N,2,C3N
3.2759,C-N,2,C3N2
3.745799999999999,C-N,2,C3N2
0.0,C-N,2,C3N4
0.8366,C-N,2,C3N4
1.134,C-N,2,C3N4
3.1949000000000005,C-N,2,C3N4
2.9168000000000003,C-N,2,C3N4
0.873800000000001,C-N,2,C3N4
1.4341,C-N,2,C3N4
1.4129999999999998,C-N,2,C3N4
2.476800000000001,C-N,2,C3N4
3.775,C-N,2,C3N4
1.9701000000000004,C-N,2,C3N4
1.1814999999999998,C-N,2,C3N4
2.0218,C-Cl-N,3,C3NCl
1.3250000000000002,C-Cl-N,3,C3NCl
1.7061000000000002,C-F-O,3,C3OF2
2.7805,Br-C-S,3,C4SBr4
1.4345,C-O-Se,3,C4SeO2
5.8888,C-N,2,C5N4
4.5314,Br-C-F,3,CBrF2
5.0373,Br-C-N,3,CBrN
4.9511,Br-C-N,3,CBrN
0.0,Br-C-N-O,4,CBrN3O
1.9837,C-Cl,2,CCl3
6.616,C-Cl-F,3,CClF3
4.9033,C-F,2,CF2
9.3354,C-F,2,CF4
1.1181,C-I,2,CI4
3.725,C-F-I,3,CIF3
4.3987,C-I-N,3,CIN
4.8638,C-N,2,CN
0.1347000000000004,C-N,2,CN2
2.1408000000000005,C-N,2,CN2
4.660499999999999,C-N,2,CN2
1.1113,C-N,2,CN2
3.6068,C-N,2,CN2
0.0,C-N-O,3,CN2O
0.2846000000000002,C-N-O,3,CN2O
0.3063,C-Cl-N,3,CN3Cl
0.0,C-Cl-N,3,CN6Cl
0.0,C-Cl-N,3,CNCl
5.8354,C-Cl-N,3,CNCl
3.7938,C-Cl-N,3,CNCl
0.0,C-Cl-N-O,4,CNClO
0.0,C-N-O,3,CNO
6.154100000000001,C-O,2,CO
5.8483,C-O,2,CO
5.7126,C-O,2,CO
0.0,C-O,2,CO
7.654599999999999,C-O,2,CO2
6.5856,C-O,2,CO2
6.4314,C-O,2,CO2
6.4419,C-O,2,CO2
6.752400000000001,C-O,2,CO2
6.496700000000001,C-O,2,CO2
6.6332,C-O,2,CO2
6.676,C-O,2,CO2
6.3098,C-O,2,CO2
6.453099999999999,C-O,2,CO2
3.9613,C-O,2,CO2
5.2707,C-O,2,CO2
0.0,C-O,2,CO3
0.0,C-S,2,CS
2.5569,C-S,2,CS14
3.4316,C-S,2,CS2
2.9355,C-F-N-S,4,CS2NF5
2.9570000000000003,C-Cl-S,3,CSCl2
0.7470999999999999,C-N-S,3,CSN2
1.3078999999999998,C-N-S,3,CSN2
1.0874,C-N-S,3,CSN2
2.4742,C-N-S,3,CSN2
1.0851999999999995,C-N-S,3,CSN2
2.1109,C-N-S,3,CSN2
1.3832000000000002,C-N-S,3,CSN2
0.0,C-N-S,3,CSN3
4.0393,C-Cl-F-N-S,5,CSNCl2F5
3.7606,C-N-O-S,4,CSNO3
4.9077,C-O-S,3,CSO
4.4961,C-O-S,3,CSO
2.3468,C-Se,2,CSe2
0.0,Ca,1,Ca
0.0,Ag-Ca-Ge,3,Ca(AgGe)2
0.0,Ag-Ca-O,3,Ca(AgO2)2
0.0261,Ag-Ca-O,3,Ca(AgO2)2
0.6968,Ag-Ca-O,3,Ca(AgO2)2
0.9283,Ag-Ca-O,3,Ca(AgO2)2
0.7873,Ag-Ca-O,3,Ca(AgO2)2
0.6817,Ag-Ca-O,3,Ca(AgO2)2
0.0,Al-Ca-Cu,3,Ca(Al2Cu)4
0.0,Al-Ca-Fe,3,Ca(Al2Fe)4
0.0,Al-Ca-Ga,3,Ca(AlGa)2
0.0,Al-Ca-Ge,3,Ca(AlGe)2
2.8314000000000004,Al-Ca-H,3,Ca(AlH4)2
3.2932,Al-Ca-H,3,Ca(AlH4)2
0.0,Al-Ca-Sb,3,Ca(AlSb)2
2.8458,Al-Ca-Se,3,Ca(AlSe2)2
0.0,Al-Ca-Si,3,Ca(AlSi)2
0.0,Al-Ca-Sn,3,Ca(AlSn)2
0.0,Al-Ca-Zn,3,Ca(AlZn)2
0.0,As-Ca-Rh,3,Ca(As2Rh3)2
3.3115,As-Ca-O,3,Ca(AsO3)2
0.0,As-Ca-O,3,Ca(AsO4)2
0.0,As-Ca-Pd,3,Ca(AsPd)2
0.0,As-Ca-Ru,3,Ca(AsRu)2
1.5298999999999998,Au-Ca-F,3,Ca(AuF6)2
1.6618000000000004,Au-Ca-O,3,Ca(AuO2)2
0.0,B-Ca-Pt,3,Ca(B2Pt3)2
0.4750999999999994,B-C-Ca,3,Ca(BC)2
0.0,B-C-Ca,3,Ca(BC)2
0.6533999999999995,B-C-Ca,3,Ca(BC3)2
4.8911,B-Ca-H,3,Ca(BH)12
0.0,B-Ca-H,3,Ca(BH)2
0.0293999999999998,B-Ca-H,3,Ca(BH)2
0.0,B-Ca-H,3,Ca(BH2)2
0.2461999999999999,B-Ca-H,3,Ca(BH2)2
5.0844000000000005,B-Ca-H,3,Ca(BH4)2
4.9736,B-Ca-H,3,Ca(BH4)2
5.093,B-Ca-H,3,Ca(BH4)2
5.0542,B-Ca-H,3,Ca(BH4)2
4.9997,B-Ca-H,3,Ca(BH4)2
0.0,B-Ca-H,3,Ca(BH4)2
5.3083,B-Ca-H,3,Ca(BH4)2
5.0954,B-Ca-H,3,Ca(BH4)2
0.0,B-Ca-Ir,3,Ca(BIr)2
5.1974,B-Ca-O,3,Ca(BO2)2
0.4062000000000001,B-Ca-O,3,Ca(BO2)3
0.5526,B-Ca-O,3,Ca(BO2)3
0.0,B-Ca-O,3,Ca(BO3)2
0.0423999999999999,B-Ca-O,3,Ca(BO3)3
0.0,B-Ca-O,3,Ca(BO4)2
0.0059,B-Ca-O,3,Ca(BO5)2
2.6853,B-Ca-O,3,Ca(BO5)2
0.0,B-Ca-O,3,Ca(BO5)2
0.0,B-Ca-Rh,3,Ca(BRh)2
0.6613999999999995,As-Be-Ca,3,Ca(BeAs)2
0.0,Be-Ca-Ge,3,Ca(BeGe)2
2.0774000000000004,Be-Ca-N,3,Ca(BeN)2
0.7359,Be-Ca-P,3,Ca(BeP)2
0.0,Au-Bi-Ca,3,Ca(BiAu3)2
1.2355,Bi-Ca-O,3,Ca(BiO2)2
1.7862999999999998,Bi-Ca-O,3,Ca(BiO2)2
1.7897999999999996,Bi-Ca-O,3,Ca(BiO2)2
1.593,Bi-Ca-O,3,Ca(BiO2)2
1.7876,Bi-Ca-O,3,Ca(BiO2)2
1.1443000000000003,Bi-Ca-O,3,Ca(BiO2)2
1.5892,Bi-Ca-O,3,Ca(BiO2)2
0.0,Bi-Ca-O,3,Ca(BiO2)4
0.2662999999999997,Bi-Ca-O,3,Ca(BiO2)4
0.5339999999999998,Bi-Ca-O,3,Ca(BiO2)4
0.4500999999999999,Bi-Ca-O,3,Ca(BiO3)2
4.2353,C-Ca-N,3,Ca(C2N3)2
3.8244,C-Ca-O,3,Ca(CO)4
0.2017,C-Ca-O,3,Ca(CO2)2
3.1204,C-Ca-O,3,Ca(CO2)2
0.2163999999999997,As-Ca-Cd,3,Ca(CdAs)2
0.0,Au-Ca-Cd,3,Ca(CdAu2)2
0.8195999999999999,Ca-Cd-P,3,Ca(CdP)2
0.1020000000000003,Ca-Cd-Sb,3,Ca(CdSb)2
0.0,Ca-Ce-S,3,Ca(CeS2)2
0.0,Ca-Ce-Te,3,Ca(CeTe2)2
1.7727000000000002,Ca-Cl-O,3,Ca(ClO)2
0.3517,Ca-Cl-O,3,Ca(ClO2)2
0.0,Ca-Cl-O,3,Ca(ClO2)2
2.5997,Ca-Cl-O,3,Ca(ClO2)2
5.0397,Ca-Cl-O,3,Ca(ClO3)2
4.6343,Ca-Cl-O,3,Ca(ClO3)2
0.2644999999999999,Ca-Co-O,3,Ca(Co2O3)2
0.0,As-Ca-Co,3,Ca(CoAs)2
0.0,Ca-Co-Ge,3,Ca(CoGe)2
0.0,Ca-Co-N,3,Ca(CoN)2
0.3952,Ca-Co-O,3,Ca(CoO2)2
0.0983,Ca-Co-O,3,Ca(CoO2)2
0.5274000000000001,Ca-Co-O,3,Ca(CoO2)2
0.2939999999999996,Ca-Co-O,3,Ca(CoO2)2
1.0792000000000002,Ca-Co-O,3,Ca(CoO2)2
0.0,Ca-Co-O,3,Ca(CoO2)2
1.954,Ca-Co-O,3,Ca(CoO2)2
0.9112,Ca-Co-O,3,Ca(CoO2)2
1.0030000000000006,Ca-Co-O,3,Ca(CoO2)2
2.2920000000000003,Ca-Co-O,3,Ca(CoO2)2
1.418,Ca-Co-O,3,Ca(CoO2)2
1.6139,Ca-Co-O,3,Ca(CoO2)2
0.0,Ca-Co-O,3,Ca(CoO2)4
0.0,Ca-Co-O,3,Ca(CoO2)8
0.0,Ca-Co-P,3,Ca(CoP)2
0.7260999999999997,Ca-Co-S,3,Ca(CoS2)2
0.9638999999999998,Ca-Co-S,3,Ca(CoS2)2
0.0,Ca-Co-S,3,Ca(CoS2)4
0.0,Ca-Co-Si,3,Ca(CoSi)2
0.0,Ca-Cr-N,3,Ca(CrN)2
0.0,Ca-Cr-S,3,Ca(CrS2)2
0.3849999999999998,Ca-Cr-S,3,Ca(CrS2)2
1.3682000000000003,Ca-Cr-S,3,Ca(CrS2)2
1.3860999999999994,Ca-Cr-S,3,Ca(CrS2)2
0.0,Ca-Cr-S,3,Ca(CrS2)4
0.0,As-Ca-Cu,3,Ca(Cu2As)2
0.0,Ca-Cu-O,3,Ca(Cu2O3)2
0.0,Ca-Cu-P,3,Ca(Cu2P)2
0.0,Ca-Cu-O,3,Ca(Cu3O4)2
0.0,As-Ca-Cu,3,Ca(CuAs)2
0.0,Ca-Cu-Ge,3,Ca(CuGe)2
0.0,Ca-Cu-N,3,Ca(CuN)2
1.2435,Ca-Cu-O,3,Ca(CuO)2
0.0,Ca-Cu-O,3,Ca(CuO2)2
0.5792999999999999,Ca-Cu-O,3,Ca(CuO2)2
0.6713,Ca-Cu-O,3,Ca(CuO2)2
0.5114000000000001,Ca-Cu-O,3,Ca(CuO2)2
0.1045999999999998,Ca-Cu-O,3,Ca(CuO2)2
0.0,Ca-Cu-P,3,Ca(CuP)2
0.0,Ca-Cu-Si,3,Ca(CuSi)2
0.0,Ca-Cu-Sn,3,Ca(CuSn)2
2.1664000000000003,Ca-Dy-S,3,Ca(DyS2)2
0.5862999999999996,Ca-Dy-Te,3,Ca(DyTe2)2
0.0,B-Ca-Er,3,Ca(Er2B15)2
1.4382999999999997,Ca-Er-S,3,Ca(ErS2)2
0.617,Ca-Er-Te,3,Ca(ErTe2)2
0.0,Ca-Fe-O,3,Ca(Fe2O3)2
1.1096000000000004,Ca-Fe-O,3,Ca(Fe2O3)4
1.0425,Ca-Fe-O,3,Ca(Fe2O3)4
0.0,As-Ca-Fe,3,Ca(FeAs)2
0.0,Ca-Fe-N,3,Ca(FeN)2
1.7351,Ca-Fe-O,3,Ca(FeO2)2
1.0006000000000004,Ca-Fe-O,3,Ca(FeO2)2
0.0,Ca-Fe-O,3,Ca(FeO2)2
1.6461,Ca-Fe-O,3,Ca(FeO2)2
2.081,Ca-Fe-O,3,Ca(FeO2)2
2.2584,Ca-Fe-O,3,Ca(FeO2)2
1.7361000000000004,Ca-Fe-O,3,Ca(FeO2)2
1.4754,Ca-Fe-O,3,Ca(FeO2)2
0.6617000000000002,Ca-Fe-O,3,Ca(FeO2)4
0.0,Ca-Fe-O,3,Ca(FeO2)4
0.0,Ca-Fe-P,3,Ca(FeP)2
0.0,Ca-Fe-S,3,Ca(FeS2)2
0.0,Ca-Fe-S,3,Ca(FeS2)4
0.0,Ca-Fe-Sb,3,Ca(FeSb3)4
0.0,Ca-Fe-Si,3,Ca(FeSi)2
0.0353000000000003,As-Ca-Ga,3,Ca(GaAs)2
1.5542999999999996,Ca-Ga-N,3,Ca(GaN)2
2.9772,Ca-Ga-O,3,Ca(GaO2)2
0.1778000000000004,Ca-Ga-P,3,Ca(GaP)2
2.6276,Ca-Ga-S,3,Ca(GaS2)2
1.4034,Ca-Gd-S,3,Ca(GdS2)2
0.0,Au-Ca-Ge,3,Ca(GeAu)2
0.0,Ca-Ge-Ir,3,Ca(GeIr)2
1.2561,Ca-Ge-N,3,Ca(GeN)2
0.0,Ca-Ge-Pd,3,Ca(GePd)2
0.0,Ca-Ge-Pt,3,Ca(GePt)2
0.0,Ca-Ge-Rh,3,Ca(GeRh)2
0.0,Ca-Ge-Ru,3,Ca(GeRu)2
2.6985,Ca-H-N,3,Ca(H2N)2
4.0013000000000005,Ca-H-O,3,Ca(H8O5)2
3.8199,Ca-H-O,3,Ca(H8O5)2
3.2181,Ca-H-O,3,Ca(H8O5)2
3.5137,Ca-H-O,3,Ca(H8O5)2
3.8933,Ca-H-O,3,Ca(H8O5)2
3.9044,Ca-H-O,3,Ca(H8O5)2
3.8401,Ca-H-O,3,Ca(H8O5)2
3.6908,Ca-H-O,3,Ca(H8O5)2
3.8913,Ca-H-O,3,Ca(H8O5)2
3.3815,Ca-H-O,3,Ca(H8O5)2
3.3662,Ca-H-O,3,Ca(H8O5)2
3.4675,Ca-H-O,3,Ca(H8O5)2
3.8139,Ca-H-O,3,Ca(H8O5)2
3.3637,Ca-H-O,3,Ca(H8O5)2
3.7409,Ca-H-O,3,Ca(H8O5)2
3.5783,Ca-H-O,3,Ca(H8O5)2
3.7376,Ca-H-O,3,Ca(H8O5)2
4.1119,Ca-H-O,3,Ca(HO)2
3.7951,Ca-H-O,3,Ca(HO)2
4.2186,Ca-H-O,3,Ca(HO)2
4.284999999999999,Ca-H-O,3,Ca(HO)2
2.1913,Ca-Ho-S,3,Ca(HoS2)2
1.1428,Ca-Ho-Se,3,Ca(HoSe2)2
0.6065,Ca-Ho-Te,3,Ca(HoTe2)2
0.0,Ca-I-N,3,Ca(IN3)2
1.5879,Ca-I-O,3,Ca(IO2)2
0.0,Ca-Cu-In,3,Ca(InCu)6
0.0041999999999999,Ca-In-N,3,Ca(InN)2
0.4085000000000001,Ca-In-P,3,Ca(InP)2
0.8012000000000001,Ca-In-S,3,Ca(InS2)2
0.6854999999999993,Ca-In-Te,3,Ca(InTe2)2
2.1455,Ca-La-S,3,Ca(LaS2)2
1.2605000000000004,Ca-La-Te,3,Ca(LaTe2)2
0.6569000000000003,Ca-Lu-Te,3,Ca(LuTe2)2
1.2605000000000004,As-Ca-Mg,3,Ca(MgAs)2
0.3886000000000003,Bi-Ca-Mg,3,Ca(MgBi)2
0.7931000000000008,Ca-Mg-Sb,3,Ca(MgSb)2
0.0,Ca-Mn-N,3,Ca(Mn5N4)2
0.0,Al-Ca-Mn,3,Ca(MnAl2)4
0.0,Al-Ca-Mn,3,Ca(MnAl3)3
0.0,As-Ca-Mn,3,Ca(MnAs)2
0.0,Bi-Ca-Mn,3,Ca(MnBi)2
0.0,Ca-Ge-Mn,3,Ca(MnGe)2
0.0,Ca-Mn-N,3,Ca(MnN)2
0.0,Ca-Mn-P,3,Ca(MnP)2
0.0,Ca-Mn-S,3,Ca(MnS2)2
0.4626000000000001,Ca-Mn-S,3,Ca(MnS2)2
0.0,Ca-Mn-S,3,Ca(MnS2)4
0.4916,Ca-Mn-Sb,3,Ca(MnSb)2
0.0,Ca-Mn-Sb,3,Ca(MnSb)2
0.0,Ca-Mo-S,3,Ca(Mo3S4)2
0.0,Ca-Mo-O,3,Ca(MoO2)2
2.3071,Ca-Mo-O,3,Ca(MoO2)2
1.8193000000000008,Ca-Mo-O,3,Ca(MoO2)2
1.8468,Ca-Mo-O,3,Ca(MoO2)2
1.3125999999999998,Ca-Mo-O,3,Ca(MoO2)2
0.0,Ca-Mo-O,3,Ca(MoO2)4
0.1530000000000004,Ca-Mo-O,3,Ca(MoO2)4
0.5779999999999998,Ca-Mo-O,3,Ca(MoO3)2
0.0,Ca-Mo-O,3,Ca(MoO3)2
0.0,Ca-Cl-N,3,Ca(NCl)2
3.6398,Ca-N-O,3,Ca(NO3)2
1.9492,Ca-N-O,3,Ca(NO4)2
2.0613,Ca-Nd-S,3,Ca(NdS2)2
1.0995999999999997,Ca-Nd-Te,3,Ca(NdTe2)2
0.0,B-Ca-Ni,3,Ca(Ni2B)6
0.0,Ca-Ni-O,3,Ca(Ni2O3)2
0.0,Ca-Ni-Sn,3,Ca(Ni2Sn)2
0.0,As-Ca-Ni,3,Ca(NiAs)2
0.0,Ca-Ge-Ni,3,Ca(NiGe)2
0.0,Ca-N-Ni,3,Ca(NiN)2
0.0,Ca-Ni-O,3,Ca(NiO2)2
0.1996000000000002,Ca-Ni-O,3,Ca(NiO2)2
0.6005000000000003,Ca-Ni-O,3,Ca(NiO2)2
0.2901999999999995,Ca-Ni-O,3,Ca(NiO2)2
0.5981000000000001,Ca-Ni-O,3,Ca(NiO2)2
0.6595999999999997,Ca-Ni-O,3,Ca(NiO2)2
0.0,Ca-Ni-O,3,Ca(NiO2)4
0.0,Ca-Ni-P,3,Ca(NiP)2
0.0,Ca-Ni-S,3,Ca(NiS2)2
0.0,Ca-Ni-S,3,Ca(NiS2)4
0.4942999999999999,Ca-Ir-P,3,Ca(PIr)2
0.0,Ca-P-Pd,3,Ca(PPd)2
0.0,Ca-P-Rh,3,Ca(PRh)2
0.0,Ca-P-Ru,3,Ca(PRu)2
0.0,Ca-N-Pd,3,Ca(PdN)2
2.0570000000000004,Ca-Pr-S,3,Ca(PrS2)2
1.1032000000000002,Ca-Pr-Te,3,Ca(PrTe2)2
0.0,Ca-O-Pt,3,Ca(PtO2)2
0.5796999999999999,Ca-O-Rh,3,Ca(RhO2)2
0.0,Ca-N-Ru,3,Ca(RuN)2
0.0,Ca-Os-Sb,3,Ca(Sb3Os)4
0.2206999999999999,Ca-O-Sb,3,Ca(SbO2)2
2.4907,Ca-O-Sb,3,Ca(SbO2)2
0.8428000000000004,Ca-O-Sb,3,Ca(SbO2)2
2.2341,Ca-O-Sb,3,Ca(SbO2)2
0.6950000000000003,Ca-O-Sb,3,Ca(SbO2)2
1.0053999999999998,Ca-O-Sb,3,Ca(SbO2)2
0.6259000000000006,Ca-O-Sb,3,Ca(SbO2)2
1.3180000000000005,Ca-O-Sb,3,Ca(SbO2)2
1.675599999999999,Ca-O-Sb,3,Ca(SbO2)2
0.0,Ca-O-Sb,3,Ca(SbO2)4
1.4866,Ca-O-Sb,3,Ca(SbO2)4
1.3276000000000003,Ca-O-Sb,3,Ca(SbO3)2
2.6943,Ca-O-Sb,3,Ca(SbO3)2
0.0,Au-Ca-Si,3,Ca(SiAu)2
0.0,Ca-Ni-Si,3,Ca(SiNi)2
0.9177,Ca-O-Si,3,Ca(SiO2)5
2.7153,Ca-O-Si,3,Ca(SiO2)6
2.6361000000000003,Ca-O-Si,3,Ca(SiO2)6
0.0,Ca-O-Si,3,Ca(SiO2)6
3.7324,Ca-O-Si,3,Ca(SiO2)6
0.0,Ca-Pd-Si,3,Ca(SiPd)2
0.0,Ca-Rh-Si,3,Ca(SiRh)2
2.0834,Ca-S-Sm,3,Ca(SmS2)2
0.0,Ca-O-Sn,3,Ca(Sn2O3)2
0.0,Ca-N-Sn,3,Ca(SnN)2
1.6598999999999997,Ca-O-Sn,3,Ca(SnO2)2
1.3036999999999992,Ca-O-Sn,3,Ca(SnO2)2
0.0,Ca-O-Sn,3,Ca(SnO2)2
1.0511999999999997,Ca-O-Sn,3,Ca(SnO2)2
0.9879999999999995,Ca-O-Sn,3,Ca(SnO2)2
1.4524000000000008,Ca-O-Sn,3,Ca(SnO2)2
0.2066999999999996,Ca-O-Sn,3,Ca(SnO2)4
0.5571999999999999,Ca-O-Sn,3,Ca(SnO2)4
2.1434000000000006,Ca-S-Tb,3,Ca(TbS2)2
0.0,Ca-N-Ti,3,Ca(TiN)2
0.0,Ca-S-Ti,3,Ca(TiS2)2
0.0,Ca-S-Ti,3,Ca(TiS2)4
1.4526,Ca-S-Tm,3,Ca(TmS2)2
0.6200000000000001,Ca-Te-Tm,3,Ca(TmTe2)2
0.0,Ca-N-V,3,Ca(VN)2
0.0,Ca-S-V,3,Ca(VS2)2
0.0,Ca-S-V,3,Ca(VS2)4
0.0,Ca-O-W,3,Ca(W2O3)2
0.0,Ca-N-W,3,Ca(WN)2
1.9131000000000005,Ca-O-W,3,Ca(WO2)2
0.3711000000000002,Ca-O-W,3,Ca(WO2)2
1.5499999999999998,Ca-O-W,3,Ca(WO2)2
0.0791999999999992,Ca-O-W,3,Ca(WO2)2
1.7355999999999998,Ca-O-W,3,Ca(WO2)2
1.5520999999999994,Ca-O-W,3,Ca(WO2)2
0.9864000000000002,Ca-O-W,3,Ca(WO2)2
0.0,Ca-O-W,3,Ca(WO2)4
1.1844,Ca-O-W,3,Ca(WO2)4
1.1728,Ca-O-W,3,Ca(WO3)2
0.6114999999999995,Ca-Te-Y,3,Ca(YTe2)2
0.3873000000000002,As-Ca-Zn,3,Ca(ZnAs)2
0.0,Ca-Ge-Zn,3,Ca(ZnGe)2
0.6376,Ca-N-Zn,3,Ca(ZnN)2
0.875,Ca-P-Zn,3,Ca(ZnP)2
0.0,Ca-Sb-Zn,3,Ca(ZnSb)2
0.0,Ca-Si-Zn,3,Ca(ZnSi)2
0.0,Ca-F-Ge,3,Ca10Ge6F
0.0,Ca-F-Si,3,Ca10Si6F
0.5924,Ca-Fe-N,3,Ca11(FeN5)2
0.0008999999999996,Ca-Mn-N,3,Ca11(MnN5)2
3.7608,Al-Ca-Cl-O-Si,5,Ca11AlSi3ClO18
0.0,Ca-Cl-O-Si,4,Ca11Si4ClO18
3.5249,Ca-O-S-Si,4,Ca11Si4SO18
0.0,B-Ca-O,3,Ca2(BO2)11
0.0,Be-Ca-Ge,3,Ca2(BeGe)3
0.0,B-Ca-Ni,3,Ca2(Ni7B2)3
0.0,Ca-Pb-Tl,3,Ca2(TlPb)3
0.0,Au-Ca-Zn,3,Ca2(ZnAu3)3
0.0,Ag-Ca-O,3,Ca2Ag2O5
0.0,Ag-Ca,2,Ca2Ag7
0.0,Ag-Au-Ca,3,Ca2AgAu
0.0,Ag-Bi-Ca,3,Ca2AgBi
0.0,Ag-Ca-Ge,3,Ca2AgGe
0.0,Ag-Ca-Pb,3,Ca2AgPb
0.0,Ag-Ca-Pd,3,Ca2AgPd
0.0,Ag-Ca-Pd,3,Ca2AgPd2
0.0,Ag-Ca-Rh,3,Ca2AgRh
0.5650999999999997,Ag-Ca-O-Sb,4,Ca2AgSbO6
0.0,Ag-Ca-Sn,3,Ca2AgSn
0.0644000000000002,Ag-Ca-O-W,4,Ca2AgWO6
0.0,Ag-Ca-O-W,4,Ca2AgWO6
0.5954000000000002,Al-Ca-O-Si,4,Ca2Al(SiO3)4
0.0,Al-Ca-O-Si,4,Ca2Al2(SiO4)3
2.1070999999999995,Al-Ca-Fe-H-O-Si,6,Ca2Al2FeSi3HO13
0.0,Al-Ca-Fe-O-Si,5,Ca2Al2FeSi3O13
3.5662000000000003,Al-Ca-O,3,Ca2Al2O5
4.731,Al-Ca-H-O-Si,5,Ca2Al2Si(HO4)2
4.3406,Al-Ca-O-Si,4,Ca2Al2SiO7
4.284800000000001,Al-Ca-O-Si,4,Ca2Al2SiO7
0.0,Al-Ca-O-Si,4,Ca2Al2SiO8
0.7739,Al-Ca-O,3,Ca2Al3O8
0.0127000000000001,Al-Ca-O-Si,4,Ca2Al3Si3O13
0.0,Ag-Al-Ca-O,4,Ca2AlAgO5
2.4052999999999995,Al-Bi-Ca-O,4,Ca2AlBiO5
2.3709,Al-Bi-Ca-O,4,Ca2AlBiO5
0.0,Al-Ca-Cl-O,4,Ca2AlClO8
0.0,Al-Ca-Co-O,4,Ca2AlCoO5
2.4178000000000006,Al-Ca-Cr-O,4,Ca2AlCrO5
0.0,Al-Ca-Cu-O,4,Ca2AlCuO5
1.7716999999999996,Al-Ca-Fe-O,4,Ca2AlFeO5
0.6981999999999999,Al-Ca-Fe-O,4,Ca2AlFeO5
4.0762,Al-Br-Ca-H-O,5,Ca2AlH10BrO8
4.1827,Al-Br-Ca-H-O,5,Ca2AlH10BrO8
4.3499,Al-Ca-Cl-H-O,5,Ca2AlH10ClO8
4.3268,Al-Ca-Cl-H-O,5,Ca2AlH10ClO8
3.7769,Al-Ca-H-I-O,5,Ca2AlH10IO8
6.5056,Al-Ca-F-H-O,5,Ca2AlH2OF7
5.583799999999999,Al-Ca-Cl-F-H-O-S,7,Ca2AlH8S2Cl(O6F)2
1.6287000000000005,Al-Ca-Mo-O,4,Ca2AlMoO5
0.0,Al-Ca-Ni-O,4,Ca2AlNiO5
0.0,Al-Ca-O-P,4,Ca2AlP2O9
0.0,Al-Ca-P-Pt,4,Ca2AlP3Pt7
5.777500000000001,Al-Ca-F-Pb,4,Ca2AlPbF9
1.8579,Al-Ca-F-O-Pb,5,Ca2AlPbOF8
0.0,Al-Ca-Pd,3,Ca2AlPd2
0.0,Al-Ca-Pt,3,Ca2AlPt2
2.545,Al-Ca-O-Sb,4,Ca2AlSbO5
0.0,Al-Ca-O-Si,4,Ca2AlSi2O7
1.6406,Al-Ca-O-Sn,4,Ca2AlSnO5
1.6103999999999994,Al-Ca-O-V,4,Ca2AlVO5
0.7542,Al-Ca-O-W,4,Ca2AlWO5
0.0,Al-Ca-Zn,3,Ca2AlZn16
0.0,As-Ca,2,Ca2As
3.3366,As-Ca-O,3,Ca2As2O7
0.1981000000000001,As-Au-Ca,3,Ca2AsAu
1.5566,As-Ca-I,3,Ca2AsI
0.0,Au-Ca-N,3,Ca2AuN
4.6781,B-Ca-O,3,Ca2B2O5
4.7075000000000005,B-Ca-O,3,Ca2B2O5
4.7423,B-Ca-O,3,Ca2B2O5
0.0,B-Ca-Rh,3,Ca2B4Rh5