eg,chemsys,nelements,formula
0.0,Ce-O-U,3,Ce2U2O9
0.0,Ce-O-U,3,Ce2U3O10
0.0,Ce-O-U,3,Ce2UO6
0.0,Ce-Se-U,3,Ce2USe4
0.0,Ce-Te-U,3,Ce2UTe4
0.0,Ce-Co-V,3,Ce2VCo16
0.0,Ce-Fe-O-V,4,Ce2VFeO6
0.0,C-Ce-W,3,Ce2WC2
0.7202999999999999,Ce-O-W,3,Ce2WO6
0.0,Ce-O-W,3,Ce2WO6
0.0,Al-Ce-Pd-Y,4,Ce2Y(AlPd)3
2.0556,Ce-O-Y,3,Ce2Y2O7
1.6482,Ce-O-Y,3,Ce2Y2O7
0.0,Ce-Si-Y,3,Ce2YSi2
0.0,Ce-Zn,2,Ce2Zn17
0.0,Ce-Cu-Zn,3,Ce2Zn2Cu5
0.0,Ce-Ni-Zn,3,Ce2Zn2Ni5
0.0,Ce-H-Sn-Zn,4,Ce2Zn2Sn2H3
0.0,Ce-Cu-Zn,3,Ce2Zn3Cu7
0.0,Ce-Ru-Zn,3,Ce2Zn4Ru
0.0,Ce-Sn-Zn,3,Ce2Zn5Sn
0.0,Bi-Ce-Zn,3,Ce2ZnBi4
0.0,Ce-Hg-Zn,3,Ce2ZnHg
0.0,Ce-In-Zn,3,Ce2ZnIn
0.0,Ce-Ni-Zn,3,Ce2ZnNi2
0.0,Ce-O-P-Zn,4,Ce2ZnP2O
0.0,Ce-Pb-Zn,3,Ce2ZnPb
0.0,Ce-Sb-Zn,3,Ce2ZnSb4
0.0,Ce-O-Zr,3,Ce2Zr2O7
2.0399000000000003,Ce-O-Zr,3,Ce2ZrO6
2.0796,Ce-O-Zr,3,Ce2ZrO6
1.8408000000000009,Ce-O-Zr,3,Ce2ZrO6
1.9567000000000003,Ce-O-Zr,3,Ce2ZrO6
0.0,Ag-Ce-Ge,3,Ce3(AgGe)4
0.0,Ag-Ce-Sn,3,Ce3(AgSn)4
0.0,Al-Ce-Si,3,Ce3(Al2Si3)2
0.0,Al-Ce-I,3,Ce3(AlI)2
0.0,B-Ce-N,3,Ce3(BN2)2
0.0,Ce-Cu-Ge,3,Ce3(CuGe)4
0.0,Ce-Cu-Sn,3,Ce3(CuSn)4
0.0,Ce-Ge-Pd,3,Ce3(Ge3Pd10)2
0.0,Ce-Ge-Rh,3,Ce3(GeRh)4
0.0,Ce-Mg-Rh,3,Ce3(MgRh2)2
0.0,Ce-P-Pd,3,Ce3(P3Pd10)2
0.0,Ce-Pd-Si,3,Ce3(Si3Pd10)2
0.0,Ce-Ni-Si,3,Ce3(Si4Ni)2
0.0,Ce-Ni-Si,3,Ce3(SiNi)4
0.0,Ce-Ni-Si,3,Ce3(SiNi3)2
0.0,Ce-Pd-Si,3,Ce3(SiPd)4
0.0,Ce-Rh-Si,3,Ce3(SiRh)4
0.0,Ce-N-Ta,3,Ce3(TaN3)2
0.0,Ag-Ce,2,Ce3Ag
0.0,Al-Ce,2,Ce3Al
0.0,Al-Ce,2,Ce3Al11
0.0,Al-C-Ce,3,Ce3AlC
0.0,Al-Ce-N,3,Ce3AlN
0.0,Al-Ce-O,3,Ce3AlO
0.0,As-Ce-S,3,Ce3AsS3
0.0,Au-Ce,2,Ce3Au
0.0,B-Ce-Cl-O,4,Ce3B2(ClO2)3
0.0,Be-Ce-Cr-S,4,Ce3BeCrS7
0.0,Br-Ce,2,Ce3Br
0.0,Cd-Ce,2,Ce3Cd
0.0,Ce-Cl,2,Ce3Cl
0.0,B-Ce-Co,3,Ce3Co11B4
0.0,Ce-Co-Si,3,Ce3Co8Si
0.0,Ce-Cr,2,Ce3Cr
0.0,Ce-Cu,2,Ce3Cu
0.0,Ce-Cu-Sb,3,Ce3Cu3Sb4
0.0,Ce-Cu-O-P,4,Ce3Cu4(P2O)2
0.0,Ce-Dy,2,Ce3Dy
1.7604999999999995,Ce-Dy-O,3,Ce3Dy2O9
0.0,Ce-Er,2,Ce3Er
0.0,Ce-Eu,2,Ce3Eu
0.0,Ce-Ga,2,Ce3Ga
0.0,Ce-Ga-Ni,3,Ce3Ga10Ni
0.0,Ce-Cl-Ga,3,Ce3Ga4Cl
0.0,Br-Ce-Ga,3,Ce3GaBr3
0.0,Ce-Gd,2,Ce3Gd
0.0,Ce-Ge,2,Ce3Ge5
0.0,Ce-Ge-S,3,Ce3GeS2
0.0,Ce-Hf,2,Ce3Hf
0.0,Ce-Hg,2,Ce3Hg
0.0,Ce-Ho,2,Ce3Ho
0.0,Ce-I,2,Ce3I
0.0,Ce-In,2,Ce3In
0.0,Ce-In-Ru,3,Ce3In3Ru2
0.0,Ce-Ge-In,3,Ce3In4Ge
0.0,C-Ce-In,3,Ce3InC
0.0,Ce-Ir,2,Ce3Ir
0.0,Ce-Mg,2,Ce3Mg
0.0,Au-Ce-In-Mg,4,Ce3Mg2InAu3
0.0,Bi-Ce-Mn,3,Ce3MnBi5
0.0,Ce-F-N,3,Ce3NF6
0.0,Ce-Nb-Sb,3,Ce3NbSb5
1.8987,Ce-Nd-O,3,Ce3Nd2O9
0.0,C-Ce-Nd,3,Ce3NdC8
0.0,B-Ce-Ni,3,Ce3Ni13B2
0.0,B-Ce-N-Ni,4,Ce3Ni2B2N3
0.0,Ce-Ge-Ni,3,Ce3Ni2Ge7
0.0,Ce-Ni-Sn,3,Ce3Ni2Sn7
0.0,Ce-Os,2,Ce3Os
0.0,Ce-Pa,2,Ce3Pa
0.0,Ce-Pb,2,Ce3Pb
0.0,C-Ce-Pb,3,Ce3PbC
0.0,Ce-Pd,2,Ce3Pd4
0.0,Ce-Pd,2,Ce3Pd5
0.0,Ce-Pm,2,Ce3Pm
0.0,Ce-O-Pr,3,Ce3PrO8
0.0,Ce-Pt,2,Ce3Pt2
0.0,Ce-Pt,2,Ce3Pt4
0.0,Ce-Rh,2,Ce3Rh2
0.0,Ce-Ru,2,Ce3Ru
0.0,Ce-S,2,Ce3S4
0.0,Au-Ce-Sb,3,Ce3Sb3Au2
0.2721,Ce-Pt-Sb,3,Ce3Sb4Pt3
0.0,Ce-Pt-Sb,3,Ce3Sb4Pt7
0.0,As-Ce-Sb,3,Ce3SbAs2
0.0,Ce-Sc,2,Ce3Sc
0.0,Ce-N-O-Se,4,Ce3Se2NO
0.0,Ce-Se,2,Ce3Se4
0.0,Ce-Si,2,Ce3Si2
0.0,Ce-Si-Sn,3,Ce3Si2Sn3
0.0,Ce-N-Si,3,Ce3Si6N11
0.0,Ce-Pd-Si,3,Ce3SiPd5
0.0,Ce-Pt-Si,3,Ce3SiPt5
0.0,Ce-S-Si,3,Ce3SiS2
0.0,Ce-Sm,2,Ce3Sm
0.0,Ce-Sn,2,Ce3Sn
0.0,Ce-Ge-Sn,3,Ce3Sn3Ge2
0.0,Ce-Sn,2,Ce3Sn5
0.0,Ce-Sn,2,Ce3Sn7
0.0,C-Ce-Sn,3,Ce3SnC
0.0,Ce-N-Sn,3,Ce3SnN
1.0815,Ce-O-Sn,3,Ce3SnO8
1.5699000000000003,Ce-O-Sn,3,Ce3SnO8
0.0,Ce-Cl-O-Ta,4,Ce3Ta(ClO2)3
0.0,Ce-O-Ta,3,Ce3TaO7
0.0,Ce-Te,2,Ce3Te4
0.0,Ce-Th,2,Ce3Th
0.0,Ce-O-Th,3,Ce3Th2O9
0.2721999999999998,Ce-O-Th,3,Ce3Th3O11
0.0,Ce-Si-Th,3,Ce3Th3Si4
1.7286,Ce-O-Th,3,Ce3Th4O14
0.0,Ce-Ti,2,Ce3Ti
0.0,Ce-Fe-Ti,3,Ce3Ti6Fe23
0.0,Ce-Sb-Ti,3,Ce3TiSb5
0.0,Ce-Tl,2,Ce3Tl
0.0,C-Ce-Tl,3,Ce3TlC
0.0,Ce-Tm,2,Ce3Tm
0.0,Al-Ce-U,3,Ce3UAl8
0.0,Ce-O-U,3,Ce3UO8
0.0,Ce-Cl-O-W,4,Ce3W(ClO2)3
0.0,Ce-Y,2,Ce3Y
0.0,Au-Ce-In-Y,4,Ce3Y(InAu2)4
1.4851,Ce-O-Y,3,Ce3Y4O12
0.0,Ce-Rh-Y,3,Ce3YRh4
0.0,Ce-Zn,2,Ce3Zn
0.0,Ce-Zn,2,Ce3Zn11
1.7776,Ce-O-Zr,3,Ce3Zr5O16
1.4603000000000002,Ce-O-Zr,3,Ce3ZrO8
2.0117000000000003,Ce-O-Zr,3,Ce3ZrO8
0.0,B-Ce-Co,3,Ce4(CoB2)3
0.0,B-Ce-Fe,3,Ce4(FeB2)3
0.0,Ce-Rh-Si,3,Ce4(Si3Rh)3
0.0,Al-C-Ce-Ni,4,Ce4Al16Ni4C3
0.0,Al-Ce-Co,3,Ce4AlCo25
0.0,As-Ce,2,Ce4As3
0.0,B-Ce-N,3,Ce4B2N5
0.0,Bi-Ce,2,Ce4Bi3
0.0,Bi-Ce-Pd,3,Ce4Bi8Pd3
0.0,Br-C-Ce,3,Ce4C2Br5
0.0,Br-C-Ce,3,Ce4C4Br3
0.0,Ce-Co-Sn,3,Ce4Co2Sn5
0.0,Au-Ce-Co-Si,4,Ce4CoSi6Au
0.0,Ce-Cu-O-S,4,Ce4Cu3(SO)4
0.0,Ce-Cu-Sb,3,Ce4Cu5Sb8
0.0,Ce-Dy-O,3,Ce4DyO9
0.0,Ce-Fe,2,Ce4Fe
0.0305999999999997,Ce-Ga-O-S,4,Ce4Ga2S5O4
0.0,Ce-Gd-O,3,Ce4GdO9
0.0,Ce-Ge,2,Ce4Ge3
0.0,Ce-Ge,2,Ce4Ge7
0.0,Ce-Ge-S,3,Ce4GeS3
0.0,Ce-H,2,Ce4H11
0.0,Ce-Mg,2,Ce4Mg
0.0,Ce-Ge-Mg,3,Ce4Mg7Ge6
0.0,Ce-Mg-O-Ti,4,Ce4MgTi2O10
0.0,Ce-Mn-Sb,3,Ce4Mn3Sb8
0.0,Ce-Ni,2,Ce4Ni
0.0,Bi-Ce-Ni,3,Ce4Ni3Bi8
0.0,Ce-Ni-Pt,3,Ce4Ni3Pt
0.0,Bi-Ce-Ni-Sb,4,Ce4Ni4Bi3Sb5
0.0,Ce-Os,2,Ce4Os
0.0,Ce-Pt,2,Ce4Pt
0.0,Ce-Pu,2,Ce4Pu
0.0,Ce-O-Re,3,Ce4Re6O19
0.0,Ce-Ru,2,Ce4Ru
0.0,Ce-Ru,2,Ce4Ru3
0.0,Ce-O-S,3,Ce4S3O4
0.0,Ce-Sb,2,Ce4Sb3
0.0143000000000004,Ce-N-Se,3,Ce4Se3N2
0.0,Ce-O-Se,3,Ce4Se3O4
0.0,Ce-Rh-Si,3,Ce4Si3Rh4
0.0,Ce-I-Si,3,Ce4SiI5
0.0,Ce-Rh-Si,3,Ce4SiRh12
0.0,Ce-Sm,2,Ce4Sm
0.0,Ce-O-Sm,3,Ce4SmO10
0.0,Ce-O-Sm,3,Ce4SmO9
1.8258,Ce-O-Sn,3,Ce4SnO10
1.5555000000000003,Ce-O-Sn,3,Ce4SnO10
1.6831999999999994,Ce-O-Th,3,Ce4ThO10
1.7909000000000006,Ce-O-Th,3,Ce4ThO10
0.0,Ce-O-Th,3,Ce4ThO8
0.0,Ce-O-Th,3,Ce4ThO9
0.0,C-Ce-U,3,Ce4UC10
0.0,Ce-O-U,3,Ce4UO10
1.8249,Ce-O-Y,3,Ce4Y2O11
0.9616000000000002,Ce-O-Y,3,Ce4Y6O17
0.0,Ce-O-Y,3,Ce4YO9
0.0,Ce-Sb-Zn,3,Ce4Zn3Sb8
0.0,Ce-Co-Zr,3,Ce4ZrCo25
2.041300000000001,Ce-O-Zr,3,Ce4ZrO10
1.9513000000000007,Ce-O-Zr,3,Ce4ZrO10
0.0,B-Ce-Fe,3,Ce5(FeB3)2
0.0,Ce-Ge-Mg,3,Ce5(MgGe)8
0.0,Ag-Ce-S,3,Ce5AgS8
0.0,Ag-Ce-Se,3,Ce5AgSe8
0.0,Al-Ce-Ru,3,Ce5Al2Ru3
0.0,Bi-Ce-Sb,3,Ce5BiSb4
0.0,Ce-Co,2,Ce5Co19
0.0,Ce-Cu-Se,3,Ce5CuSe8
1.2663000000000002,Ce-Dy-O,3,Ce5Dy2O13
0.0,Ce-Ga-Ge,3,Ce5Ga2Ge
0.0,Ce-Ga,2,Ce5Ga3
1.2624000000000004,Ce-Gd-O,3,Ce5Gd2O13
0.0,Ce-Ge-Pd,3,Ce5Ge2Pd
0.0,Ce-Ge,2,Ce5Ge3
0.0,C-Ce-Ge,3,Ce5Ge3C
0.0,Ce-Mg,2,Ce5Mg
0.0,Ce-Nd-Si,3,Ce5Nd5Si6
0.0,Ce-O,2,Ce5O9
0.0,Ce-S,2,Ce5S8
0.0,Ce-Sb,2,Ce5Sb3
0.0,As-Ce-Sb,3,Ce5Sb4As
0.0,Ce-Si,2,Ce5Si3
1.316599999999999,Ce-O-Sm,3,Ce5Sm2O13
0.0,Ce-Sn,2,Ce5Sn3
1.0354,Ce-O-Y,3,Ce5Y2O13
1.8294999999999997,Ce-O-Zr,3,Ce5Zr3O16
0.0,B-Br-C-Ce,4,Ce6B2(CBr)3
0.0,Cd-Ce-Pd,3,Ce6Cd4Pd13
0.0,Ce-Ni-Si,3,Ce6SiNi4
0.1027999999999993,Ce-O-Th,3,Ce6Th4O19
0.0,Ce-Ni,2,Ce7Ni3
0.0,Ce-O,2,Ce7O12
0.0,Ce-Pt,2,Ce7Pt3
0.0,Ce-Ru,2,Ce7Ru3
1.8269,Ce-O-Zr,3,Ce7ZrO16
1.5231999999999992,Ce-Gd-O,3,Ce8Gd2O19
1.9251,Ce-Nd-O,3,Ce8Nd2O19
0.0,B-Ce-Re,3,Ce8Re13B12
0.0,Ce-O-U,3,Ce8U2O21
0.0,Ce-Dy-O,3,Ce9DyO20
0.0,Ce-Gd-O,3,Ce9GdO20
0.0,Ce-O-Sm,3,Ce9SmO20
0.0,Ce-O-Y,3,Ce9YO20
0.0,Ag-Ce,2,CeAg
0.0811999999999999,Ag-Ce-O-W,4,CeAg(WO4)2
0.0,Ag-Ce,2,CeAg2
0.0,Ag-Ce,2,CeAg3
0.0,Ag-As-Ce,3,CeAgAs2
0.0,Ag-Au-Ce,3,CeAgAu2
0.0,Ag-Ce-Ge,3,CeAgGe
0.0,Ag-Ce-Hg,3,CeAgHg2
0.0,Ag-Ce-P,3,CeAgP2
0.0,Ag-Ce-Pb,3,CeAgPb
0.0,Ag-Ce-Sb,3,CeAgSb2
0.0,Ag-Ce-Sn,3,CeAgSn
0.0,Al-Ce,2,CeAl
0.0,Al-Ce-Cu-Ni,4,CeAl(CuNi)2
0.0,Al-Ce,2,CeAl2
0.0,Ag-Al-Ce,3,CeAl2Ag3
0.0,Al-B-Ce-Ru,4,CeAl2BRu2
0.0,Al-Ce-Cu,3,CeAl2Cu3
0.0,Al-Ce-Ni,3,CeAl2Ni
0.0,Al-Ce-Pd,3,CeAl2Pd5
0.0,Al-Ce-Pt,3,CeAl2Pt
0.0,Al-Ce-Pt,3,CeAl2Pt3
0.0,Al-Ce,2,CeAl3
0.0,Al-Ce-O-P,4,CeAl3(PO7)2
0.0,Ag-Al-Ce,3,CeAl3Ag
0.0,Al-Au-Ce,3,CeAl3Au
0.0,Al-Ce-Cu,3,CeAl3Cu
0.0,Al-Ce-Ni,3,CeAl3Ni2
0.0,Al-Ce-Pd,3,CeAl3Pd
0.0,Al-Ce-Pd,3,CeAl3Pd2
0.0,Al-Ce-Pt,3,CeAl3Pt
0.0,Al-Ce-Pt,3,CeAl3Pt2
0.0,Al-Ce,2,CeAl4
0.0,Al-Ce-Co,3,CeAl4Co
0.0,Al-Ce-Cu-Si,4,CeAl4Cu2Si
0.0,Al-Au-Ce-Ge,4,CeAl4Ge2Au
0.0,Al-Ce-Ni,3,CeAl4Ni
0.0,Al-Ce-Pd,3,CeAl4Pd
0.0,Al-Ce-Ir-Si,4,CeAl4Si2Ir
0.0,Al-Ce-Rh-Si,4,CeAl4Si2Rh
0.0,Al-Ce-Ni,3,CeAl5Ni2
0.0,Al-Ce-Pd,3,CeAl6Pd
0.0,Al-Au-Ce,3,CeAl7Au3
0.0,Al-Ce-O,3,CeAl8O16
0.0,Ag-Al-Ce,3,CeAlAg2
0.0,Al-Au-Ce,3,CeAlAu
0.0,Al-Ce-Co,3,CeAlCo
0.0,Al-Ce-Co,3,CeAlCo4
0.0,Al-Ce-Cu,3,CeAlCu
0.0,Al-Ce-Cu,3,CeAlCu4
0.0,Al-Ce-Ga,3,CeAlGa
0.0,Al-Ce-Ge,3,CeAlGe
0.0,Al-Ce-H-Ir,4,CeAlH2Ir
0.0,Al-Ce-Ir,3,CeAlIr
0.0,Al-Ce-Ni,3,CeAlNi
0.0,Al-Ce-Ni,3,CeAlNi4
0.0,Al-Ce-O,3,CeAlO2
0.0,Al-Ce-O,3,CeAlO3
0.0,Al-Ce-Pd,3,CeAlPd
0.0,Al-Ce-Pd,3,CeAlPd2
0.0,Al-Ce-Pt,3,CeAlPt
0.0,Al-Ce-Rh,3,CeAlRh
0.0,Al-Ce-Ru,3,CeAlRu
0.0,Al-Ce-Si,3,CeAlSi
0.0,Al-Ce-Si,3,CeAlSi2
0.0,As-Ce,2,CeAs
0.0693000000000001,As-Ce,2,CeAs2
0.0,As-Au-Ce,3,CeAs2Au
0.0,As-Ce-Pd,3,CeAs2Pd3
0.0,As-Ce,2,CeAs3
0.0,As-Ce-F-N-O,5,CeAsN(O2F)2
0.0609000000000001,As-Ce-O,3,CeAsO3
0.0392000000000001,As-Ce-O,3,CeAsO4
1.4954999999999998,As-Ce-F-O,4,CeAsO4F
0.0,As-Ce-F-O,4,CeAsO5F
0.0,As-Ce-Pd,3,CeAsPd
0.0255999999999998,As-Ce-Rh,3,CeAsRh
0.0363000000000006,As-Ce-Rh,3,CeAsRh
0.0,As-Ce-O-Ru,4,CeAsRuO
0.0,As-Ce-S,3,CeAsS
0.0,Au-Ce,2,CeAu
0.0,Au-Ce,2,CeAu2
0.0,Au-Ce,2,CeAu3
0.0,Au-Ce,2,CeAu6
0.0,B-C-Ce,3,CeB2C
0.1345,B-Ce-Cl-O,4,CeB2ClO4
0.0,B-C-Ce-Ir,4,CeB2Ir2C
0.0,B-Ce-Ir-Rh,4,CeB2Ir2Rh
0.0,B-Ce-Ir,3,CeB2Ir3
0.0,B-C-Ce-Pd,4,CeB2Pd2C
0.0,B-C-Ce-Pt,4,CeB2Pt2C
0.0,B-C-Ce-Rh,4,CeB2Rh2C
0.0,B-Ce-Rh,3,CeB2Rh3
0.0,B-Ce-Ru,3,CeB2Ru
0.0,B-Ce-Rh-Ru,4,CeB2Ru2Rh
0.0,B-Ce-Ru,3,CeB2Ru3
0.0,B-Ce,2,CeB4
0.0,B-Ce-Ir-Os,4,CeB4(IrOs)2
0.0,B-Ce-Cl-O,4,CeB4ClO8
0.4502999999999995,B-Ce-Cl-H-O,5,CeB4H2ClO8
0.0,B-Ce,2,CeB6
0.1158000000000001,B-Ce-Mo-O,4,CeBMoO6
0.0,B-Ce-N,3,CeBN2
0.0293000000000001,B-Ce-O,3,CeBO3
0.0586999999999999,B-Ce-O,3,CeBO3
0.0,B-Ce-Pd,3,CeBPd3
0.0,B-Ce-Pt,3,CeBPt2
0.0,B-Ce-Pt,3,CeBPt3
0.0,B-Ce-Pt,3,CeBPt4
0.0,B-Ce-Rh,3,CeBRh3
0.0786999999999995,B-Ce-S,3,CeBS3
0.0,Be-Ce,2,CeBe13
0.0,Al-Be-Ce,3,CeBeAl3
0.8093999999999992,Be-Ce-O,3,CeBeO3
0.0,Be-Ce-H-O-Si,5,CeBeSiHO5
0.1875,Be-Ce-H-O-Si,5,CeBeSiHO5
0.0,Bi-Ce,2,CeBi
0.0,Au-Bi-Ce,3,CeBi2Au
0.4241999999999999,Bi-Ce-O-Se,4,CeBi2SeO4
0.0,Bi-Ce,2,CeBi3
0.0,Au-Bi-Ce,3,CeBiAu2
0.0,Bi-Ce-Pd,3,CeBiPd
0.0,Bi-Ce-Pt,3,CeBiPt
0.0144000000000001,Bi-Ce-Rh,3,CeBiRh
0.0,Bi-Ce-O-S,4,CeBiS2O
0.0,Br-Ce,2,CeBr3
0.1895,Br-Ce-O,3,CeBr3O7
0.0,Br-Ce-O,3,CeBrO
0.0,C-Ce,2,CeC
0.0,C-Ce,2,CeC2
0.0,C-Ce-Cl-N-O,5,CeC8N4(Cl2O3)2
0.0,C-Ce-O,3,CeCO
0.0798999999999994,C-Ce-F-O,4,CeCO3F
0.0,Cd-Ce,2,CeCd
0.0,Cd-Ce,2,CeCd2
0.0,Ag-Cd-Ce,3,CeCd2Ag
0.0,Cd-Ce-Cu,3,CeCd2Cu
0.0,Cd-Ce,2,CeCd3
0.0,Ag-Cd-Ce,3,CeCdAg2
0.0,As-Cd-Ce-O,4,CeCdAsO
0.0,Au-Cd-Ce,3,CeCdAu
0.0,Au-Cd-Ce,3,CeCdAu2
0.0,Cd-Ce-Cu,3,CeCdCu
0.0,Cd-Ce-Hg,3,CeCdHg2
0.0,Cd-Ce-In,3,CeCdIn
0.0,Cd-Ce-Ni,3,CeCdNi4
1.5446999999999995,Cd-Ce-O,3,CeCdO3
0.0,Cd-Ce-Pd,3,CeCdPd
0.0,Cd-Ce-Pt,3,CeCdPt
0.0110999999999998,Ce-Cl,2,CeCl3
0.0,Ce-Cl-O,3,CeClO
0.0,Ce-Co,2,CeCo2
0.0,B-C-Ce-Co,4,CeCo2B2C
0.0,B-Ce-Co-Si,4,CeCo2SiB
0.0,Ce-Co,2,CeCo3
0.0,B-Ce-Co,3,CeCo3B2
0.0,Ce-Co-Cu,3,CeCo3Cu2
0.0,B-Ce-Co,3,CeCo4B
0.0,Ce-Co-Cu,3,CeCo4Cu
0.0,Ce-Co,2,CeCo5
0.0,Ce-Co-H,3,CeCo5H3
0.0,Ce-Co-H,3,CeCo5H4
0.0,Ce-Co-P,3,CeCo5P3
0.0,Ce-Co-Ge,3,CeCo9Ge4
0.0,Ce-Co-Si,3,CeCo9Si4
0.0,C-Ce-Co,3,CeCoC2
0.0,Ce-Co-Cu-Si,4,CeCoCuSi2
0.0,Ce-Co-Ge,3,CeCoGe
0.0,Ce-Co-Ge,3,CeCoGe2
0.0,Ce-Co-Ge-Ru,4,CeCoGe2Ru
0.0,Ce-Co-Ge,3,CeCoGe3
0.0,Ce-Co-Ge-H,4,CeCoGeH
0.0,Ce-Co-Rh,3,CeCoRh
0.0,Ce-Co-Sb,3,CeCoSb2
0.0,Ce-Co-Si,3,CeCoSi
0.0,Ce-Co-Si,3,CeCoSi2
0.0,Ce-Co-Rh-Si,4,CeCoSi2Rh
0.0,Ce-Co-Si,3,CeCoSi3
0.0,Ce-Cr-O,3,CeCr2O10
0.0,C-Ce-Cr-Si,4,CeCr2Si2C
0.0,B-Ce-Cr,3,CeCrB4
0.0,Ce-Cr-Ge,3,CeCrGe3
0.0,Ce-Cr-O,3,CeCrO3
0.0,Ce-Cr-O-S,4,CeCrS2O
0.0,Ce-Cr-S,3,CeCrS3
0.0,Ce-Cr-Sb,3,CeCrSb3
0.0,Ce-Cr-O-Se,4,CeCrSe2O
0.0,Ce-Cr-Se,3,CeCrSe3
0.0,Ce-Cu,2,CeCu
0.1174999999999997,Ce-Cu-O-W,4,CeCu(WO4)2
0.0,Ce-Cu,2,CeCu2
0.0,Ce-Cu-Si,3,CeCu2Si
0.0,Ce-Cu-Ge-Si,4,CeCu2SiGe
0.0,Ce-Cu-Sn,3,CeCu4Sn
0.0,Ce-Cu,2,CeCu5
0.0,Ag-Ce-Cu,3,CeCu5Ag
0.0,Au-Ce-Cu,3,CeCu5Au
0.0,Ce-Cu-Sn,3,CeCu5Sn
0.0,Ce-Cu,2,CeCu6
0.0,Ce-Cu-Sn,3,CeCu9Sn4
0.0,Ce-Cu-Ge,3,CeCuGe
0.0,Ce-Cu-Ge,3,CeCuGe2
0.2008000000000001,Ce-Cu-Ge-H,4,CeCuGeH
0.0,Ce-Cu-N,3,CeCuN2
0.0,Ce-Cu-Ni,3,CeCuNi
0.0,Ce-Cu-O,3,CeCuO3
0.0,Ce-Cu-Pb,3,CeCuPb
0.0,Ce-Cu-Pt,3,CeCuPt4
0.0,Ce-Cu-S,3,CeCuS2
0.0,Ce-Cu-O-S,4,CeCuSO
0.0,Ce-Cu-Sb,3,CeCuSb2
0.0,Ce-Cu-Se,3,CeCuSe2
0.0,Ce-Cu-Si,3,CeCuSi
0.0,Ce-Cu-Si,3,CeCuSi2
0.0,Ce-Cu-Ni-Si,4,CeCuSi2Ni
0.0,Ce-Cu-Pd-Si,4,CeCuSi2Pd
0.0,Ce-Cu-Ru-Si,4,CeCuSi2Ru
0.0,Ce-Cu-Sn,3,CeCuSn
0.0,Ce-Cu-O-Te,4,CeCuTeO
0.0,Ce-Dy,2,CeDy3
0.0,Ce-Dy-S,3,CeDy4S7
0.0,C-Ce-Dy,3,CeDyC4
0.0,Ce-Dy-Fe,3,CeDyFe4
0.0,Ce-Dy-Mg,3,CeDyMg2
0.0,Ce-Dy-S,3,CeDyS3
0.0,Ce-Dy-Zn,3,CeDyZn2
0.0,Ce-Er,2,CeEr
0.0,Ce-Er,2,CeEr3
0.0,Ce-Er-S,3,CeEr4S7
0.0,Ce-Er-In,3,CeErIn2
0.0,Ce-Er-Mg,3,CeErMg2
0.0,Ce-Cr-Eu-O,4,CeEu2CrO6
0.0,Ce-Eu-O-V,4,CeEu2VO6
0.0,Ce-Eu-O-W,4,CeEu2WO6
0.2763999999999997,Ce-Eu-O-Zr,4,CeEu2ZrO6
0.0,Ce-Eu,2,CeEu3
0.0,Ag-Ce-Eu,3,CeEuAg2
0.0,Al-Ce-Eu,3,CeEuAl4
0.0,B-Ce-Eu,3,CeEuB12
0.0,Cd-Ce-Eu,3,CeEuCd2
0.0,Ce-Eu-Zn,3,CeEuZn2
0.0,Ce-F,2,CeF3
2.1473,Ce-F,2,CeF4
0.0,Ce-Fe-Ge-Ni,4,CeFe(Ni2Ge)4
0.0,Ce-Fe,2,CeFe2
0.0,Ce-Cu-Fe-O,4,CeFe4(CuO4)3
0.0,Ce-Fe,2,CeFe5
0.0,Ce-Fe-Si,3,CeFe9Si4
0.0,As-Ce-Fe-O,4,CeFeAsO
0.0,B-Ce-Fe,3,CeFeB4
0.0,Ce-Co-Fe,3,CeFeCo
0.0,Ce-Cu-Fe,3,CeFeCu
0.0,Ce-Fe-Ge,3,CeFeGe3
0.0,Ce-Fe-Ni,3,CeFeNi4
0.6735999999999995,Ce-Fe-O,3,CeFeO3
0.0,Ce-Fe-O,3,CeFeO3
0.0,Ce-Fe-Sb,3,CeFeSb2
0.0,Ce-Fe-Si,3,CeFeSi
0.0,Ce-Fe-Si,3,CeFeSi2
0.0,Ce-Ga,2,CeGa
0.0,Ce-Ga,2,CeGa2
0.0,Ce-Co-Ga,3,CeGa2Co3
0.0,Ce-Cu-Ga,3,CeGa2Cu3
0.0,Ce-Ga-Ni,3,CeGa2Ni
0.0,Ce-Ga-Ni,3,CeGa2Ni3
0.0,Ce-Ga,2,CeGa3
0.0,Ag-Ce-Ga,3,CeGa3Ag
0.0,Au-Ce-Ga,3,CeGa3Au
0.0,Ce-Cu-Ga,3,CeGa3Cu
0.0,Ce-Ga-Ni,3,CeGa3Ni
0.0,Ce-Ga-Pd,3,CeGa3Pd
0.0,Ce-Ga-Pd,3,CeGa3Pd2
0.0,Ce-Ga-Pt,3,CeGa3Pt
0.0,Ce-Co-Ga,3,CeGa4Co9
0.0,Ce-Ga,2,CeGa6
0.0,Ce-Ga-Ni,3,CeGa6Ni
0.0,Ce-Ga-Pd,3,CeGa6Pd
0.0,Ce-Fe-Ga,3,CeGa7Fe5
0.0,Ag-Ce-Ga,3,CeGaAg
0.0,Ce-Co-Ga,3,CeGaCo
0.0,Ce-Cu-Ga,3,CeGaCu4
0.0,Ce-Ga-Ge,3,CeGaGe
0.0,Ce-Ga-Ir,3,CeGaIr
0.0,Ce-Ga-Ni,3,CeGaNi
0.0,Ce-Ga-Ni,3,CeGaNi4
0.0,Ce-Ga-O,3,CeGaO2
0.0,Ce-Ga-O,3,CeGaO3
0.0,Ce-Ga-Pd,3,CeGaPd
0.0,Ce-Ga-Pd,3,CeGaPd2
0.0,Ce-Ga-Pt,3,CeGaPt
0.0,Ce-Ga-Pt,3,CeGaPt4
0.0,Ce-Ga-Rh,3,CeGaRh
0.0,Ce-Gd,2,CeGd3
0.0,Ce-Gd-N,3,CeGdN2
0.0,Ce-Ge,2,CeGe
0.0,Ce-Ge,2,CeGe2
0.0,Ce-Ge-Pt,3,CeGe2Pt
0.0,Ce-Ge-Ir,3,CeGe3Ir
0.0,Ce-Ge-Rh,3,CeGe3Rh
0.0,Ce-Ge,2,CeGe5
0.0,Au-Ce-Ge,3,CeGeAu
0.0,Bi-Ce-Ge,3,CeGeBi2
0.0,Ce-Ge-Ir,3,CeGeIr
0.0,Ce-Ge-O,3,CeGeO2
0.0,Ce-Ge-Pd,3,CeGePd
0.0,Ce-Ge-Pd,3,CeGePd2
0.0,Ce-Ge-Pt,3,CeGePt
0.0,Ce-Ge-Rh,3,CeGeRh
0.0,Ce-H,2,CeH2
0.0,Ce-H,2,CeH3
0.0,C-Ce-H-O,4,CeH3(CO2)3
0.3377999999999996,Ce-H-O-S,4,CeH3(SO4)3
1.0573,Ce-H-O-S,4,CeH8(SO6)2
0.0,Ce-H-O-S,4,CeHSO5
0.0,Ce-H-Se,3,CeHSe
0.1023,Ce-F-Hf,3,CeHf2F11
0.3565,Ce-F-Hf,3,CeHfF7
0.0,Ce-Hf-Mg,3,CeHfMg14
0.0,Ce-Hf-Mg-O,4,CeHfMg14O16
0.0,Ce-Hf-Mg,3,CeHfMg6
0.0,Ce-Hf-Mg-O,4,CeHfMg6O8
0.0,Ce-Hf-O,3,CeHfO14
1.6628999999999996,Ce-Hf-O,3,CeHfO4
1.7957,Ce-Hf-O,3,CeHfO4
1.5109999999999997,Ce-Hf-O,3,CeHfO4
0.0,Ce-Hg,2,CeHg
0.0,Ce-Hg,2,CeHg2
0.0,Ce-Hg,2,CeHg3
0.0,Au-Ce-Hg,3,CeHgAu2
0.0,Ce-Hg-Pd,3,CeHgPd
0.0,Ce-Ho,2,CeHo3
0.0,Ce-Ho-S,3,CeHo4S7
0.0,Ce-Ho-In,3,CeHoIn2
0.0,Ce-Ho-Mg,3,CeHoMg2
0.0,Ce-Ho-Zn,3,CeHoZn2
0.0,Ce-I,2,CeI3
0.0462000000000002,Ce-I,2,CeI3
0.0,Ce-In-Ir,3,CeIn2Ir
0.0,Ce-In-Ni,3,CeIn2Ni9
0.0,Ce-In-Pd,3,CeIn2Pd
0.0,Ce-In-Pd,3,CeIn2Pd3
0.0,Ce-In-Rh,3,CeIn2Rh
0.0,Ce-In,2,CeIn3
0.0111999999999996,Ce-Cu-In-Se,4,CeIn3(CuSe2)4
0.0,Ce-In-Ni,3,CeIn4Ni
0.0,Ce-In-Pd,3,CeIn4Pd
0.0,Ce-Co-In,3,CeIn5Co
0.0,Ce-In-Ir,3,CeIn5Ir
0.0,Ce-In-Rh,3,CeIn5Rh
0.0,Ce-Cu-In,3,CeIn7Cu5
0.0,Ce-In-Pt,3,CeIn7Pt2
0.0,Ag-Ce-In,3,CeInAg2
0.0,Au-Ce-In,3,CeInAu
0.0,Au-Ce-In,3,CeInAu2
0.0,Ce-Cu-In,3,CeInCu
0.0,Ce-Cu-In,3,CeInCu2
0.0,Ce-Cu-In,3,CeInCu5
0.0,Ag-Ce-Cu-In,4,CeInCuAg
0.0,Ce-In-Ir,3,CeInIr
0.0,Ce-In-Ni,3,CeInNi
0.0,Ce-In-Ni,3,CeInNi4
0.0,Ce-In-Pd,3,CeInPd
0.0,Ce-In-Pd,3,CeInPd2
0.0,Ce-In-Pt,3,CeInPt
0.0,Ce-In-Pt,3,CeInPt4
0.0,Ce-In-Rh,3,CeInRh
0.0,Ce-Ir,2,CeIr2
0.0,Ce-Ir,2,CeIr3
0.0,Ce-Ir,2,CeIr5
0.0,Ce-Ir-Os,3,CeIrOs
0.0,Ce-Ir-Pt,3,CeIrPt
0.0,Ce-Lu,2,CeLu3
0.0,Al-Ce-Lu,3,CeLuAl4
0.0,Ce-Lu-Mg,3,CeLuMg2
0.1122000000000005,Ce-Lu-O,3,CeLuO3
0.0,Ce-Lu-S,3,CeLuS3
0.0,Ce-Mg,2,CeMg
0.1127999999999997,Ce-Mg,2,CeMg
0.0259,Ce-Mg,2,CeMg
0.0803000000000002,Ce-Mg,2,CeMg
0.0,Ce-H-Mg-Ni,4,CeMg(NiH)4
0.0,Ce-Mg,2,CeMg12
0.0,Al-Ce-Mg,3,CeMg14Al
0.0,B-Ce-Mg,3,CeMg14B
0.0,B-Ce-Mg-O,4,CeMg14BO16
0.0,Bi-Ce-Mg,3,CeMg14Bi
0.0,C-Ce-Mg,3,CeMg14C
0.0,Cd-Ce-Mg,3,CeMg14Cd
0.0,Ce-Co-Mg,3,CeMg14Co
0.0,Ce-Cr-Mg,3,CeMg14Cr
0.0,Ce-Cu-Mg,3,CeMg14Cu
0.0,Ce-Fe-Mg,3,CeMg14Fe
0.0,Ce-Ga-Mg,3,CeMg14Ga
0.0,Ce-Mg-Mn,3,CeMg14Mn
0.0,Ce-Mg-Mo,3,CeMg14Mo
0.0,Ce-Mg-Nb,3,CeMg14Nb
0.0,Ce-Mg-Ni,3,CeMg14Ni
0.0,Ce-Mg-Sb,3,CeMg14Sb
0.0,Ce-Mg-Si,3,CeMg14Si
0.0,Ce-Mg-Sn,3,CeMg14Sn
0.0,Ce-Mg-Ti,3,CeMg14Ti
0.0,Ce-Mg-V,3,CeMg14V
0.0,Ce-Mg-W,3,CeMg14W
0.0,Ce-Mg-Zn,3,CeMg14Zn
0.0,Ce-Mg-Zr,3,CeMg14Zr
0.0,Ce-Mg,2,CeMg15
0.0,Ce-Mg,2,CeMg2
0.0,Ag-Ce-Mg,3,CeMg2Ag
0.0,Ce-Cu-Mg,3,CeMg2Cu
0.0,Ce-Cu-Mg,3,CeMg2Cu9
0.0,Ce-Fe-Mg,3,CeMg2Fe
0.0,Ce-H-Mg,3,CeMg2H7
0.0,Ce-Mg-Ni,3,CeMg2Ni
0.0,Ce-Mg-Ni,3,CeMg2Ni9
0.0,Ce-Mg,2,CeMg3
0.0,Ce-Mg-O,3,CeMg3O4
0.0,Ce-Mg,2,CeMg5
0.0,Al-Ce-Mg,3,CeMg6Al
0.0,B-Ce-Mg,3,CeMg6B
0.0,B-Ce-Mg-O,4,CeMg6BO8
0.0,Bi-Ce-Mg,3,CeMg6Bi
0.0,C-Ce-Mg,3,CeMg6C
0.0,Cd-Ce-Mg,3,CeMg6Cd
0.0,Ce-Co-Mg,3,CeMg6Co
0.0,Ce-Cr-Mg,3,CeMg6Cr
0.0,Ce-Cu-Mg,3,CeMg6Cu
0.0,Ce-Fe-Mg,3,CeMg6Fe
0.0,Ce-Ga-Mg,3,CeMg6Ga
0.0,Ce-Mg-Mn,3,CeMg6Mn
0.0,Ce-Mg-Mo,3,CeMg6Mo
0.0,Ce-Mg-Nb,3,CeMg6Nb
0.0,Ce-Mg-Ni,3,CeMg6Ni
0.0,Ce-Mg-Sb,3,CeMg6Sb
0.0,Ce-Mg-Si,3,CeMg6Si
0.0,Ce-Mg-Sn,3,CeMg6Sn
0.0,Ce-Mg-Ti,3,CeMg6Ti
0.0,Ce-Mg-V,3,CeMg6V
0.0,Ce-Mg-W,3,CeMg6W
0.0,Ce-Mg-Zn,3,CeMg6Zn
0.0,Ce-Mg-Zr,3,CeMg6Zr
0.0,Ce-Mg,2,CeMg7
0.0,Ag-Ce-Mg,3,CeMgAg
0.0,Ag-Ce-Mg,3,CeMgAg2
0.0,Au-Ce-Mg,3,CeMgAu
0.0,Au-Ce-Mg,3,CeMgAu2
0.0,Cd-Ce-Mg,3,CeMgCd2
0.0,Ce-Cu-Mg,3,CeMgCu
0.0,Ce-Cu-Mg,3,CeMgCu2
0.0,Ce-Ga-Mg,3,CeMgGa
0.0,Ce-Hg-Mg,3,CeMgHg2
0.0,Ce-In-Mg-Rh,4,CeMgIn3Rh
0.0,Ce-Mg-Ni,3,CeMgNi4
0.0,Ce-Mg-Pd,3,CeMgPd
0.0,Ce-Mg-Pt,3,CeMgPt
0.0,Ce-Mg-Rh,3,CeMgRh
0.4020999999999999,Ce-Mg-S,3,CeMgS3
0.1546000000000003,Ce-Mg-Se,3,CeMgSe3
0.0,Ce-Mg-Si,3,CeMgSi2
0.0,Ce-Mg-Sn,3,CeMgSn
0.0,Ce-Mg-O-Ti,4,CeMgTi2O6
0.0,Ce-Mg-Tl,3,CeMgTl
0.0,Ce-Mg-Zn,3,CeMgZn2
0.0,Ce-Mg-O-Zr,4,CeMgZr7O16
0.0,Ce-Cu-Mn,3,CeMn10Cu
0.4958,Ce-Ge-Mn-O,4,CeMn2(GeO3)4
0.0,Ce-Cu-Mn,3,CeMn2Cu9
0.0,Ce-Cu-Mn-O,4,CeMn4(CuO4)3
0.0,Ce-Co-Mn,3,CeMn5Co7
0.0,Ce-Mn-Ni,3,CeMn7Ni5
0.0,Al-Ce-Mn,3,CeMnAl
0.0,As-Ce-Mn-O,4,CeMnAsO
0.0,B-Ce-Mn,3,CeMnB4
0.0,Ce-Cr-Mn-Si,4,CeMnCrSi2
0.0,Ce-Ge-Mn,3,CeMnGe
0.0,Ce-In-Mn,3,CeMnIn
0.0,Ce-Mn-Ni,3,CeMnNi4
0.0,Ce-Mn-O,3,CeMnO3
0.0,Ce-Mn-O-Sb,4,CeMnSbO
0.0,Ce-Mn-Si,3,CeMnSi
0.0,Ce-Mn-Si,3,CeMnSi2
0.0,Ce-Mn-Pd-Si,4,CeMnSi2Pd
0.0,Ce-Mn-Sn,3,CeMnSn2
0.286,Br-Ce-Mo-O,4,CeMoBrO4
0.0,Ce-Mo-O,3,CeMoO2
0.1015000000000005,Ce-F-Mo-O,4,CeMoO4F
0.0,Ce-N,2,CeN
0.6753,Ce-Cl-N-O,4,CeN(ClO)4
0.4652000000000003,Ce-N,2,CeN2
0.0,Ce-In-Nb-O,4,CeNb2InO6
0.0,Ce-Nb-O,3,CeNbO2
0.0,Ce-Nb-O,3,CeNbO4
0.0,Ce-Nd,2,CeNd3
0.0,C-Ce-Nd,3,CeNd3C8
0.0,Ce-Nd-Si,3,CeNd3Si8
2.2307,Ce-Nd-O-Zr,4,CeNd4Zr3O14
0.0,Al-Ce-Nd-O,4,CeNdAl2O6
0.0,Al-Ce-Nd,3,CeNdAl4
0.0,C-Ce-Nd,3,CeNdC4
0.0,Ce-Hg-Nd,3,CeNdHg2
0.0,Ce-I-Nd,3,CeNdI4
0.0,Ce-N-Nd,3,CeNdN2
0.0,Ce-Nd-S,3,CeNdS2
0.0,Ce-Nd-Si,3,CeNdSi2
0.0,Ce-Nd-Zn,3,CeNdZn2
0.0,Ce-Ni,2,CeNi
0.0,Ce-Ni,2,CeNi2
0.0,B-C-Ce-Ni,4,CeNi2B2C
0.0,B-Ce-Ni,3,CeNi2B3
0.0,Ce-Ni,2,CeNi3
0.0,B-Ce-Ni,3,CeNi4B
0.0,Ce-Ni,2,CeNi5
0.0,Ce-Ni-Sn,3,CeNi5Sn
0.0,Ce-Ge-Ni,3,CeNi9Ge4
0.0,As-Ce-Ni,3,CeNiAs
0.0,As-Ce-Ni-O,4,CeNiAsO
0.0,B-Ce-Ni,3,CeNiB4
0.0,C-Ce-Ni,3,CeNiC2
0.0567999999999999,Ce-Ge-Ni,3,CeNiGe
0.0,Ce-Ge-Ni,3,CeNiGe
0.0,Ce-Ge-Ni,3,CeNiGe2
0.0,Ce-Ge-Ni,3,CeNiGe3
0.5667,Ce-Ni-O,3,CeNiO3
0.0,Ce-Ni-O,3,CeNiO3
0.0,Ce-Ni-P,3,CeNiP
0.0,Ce-Ni-Pt,3,CeNiPt
0.0,Ce-Ni-Sb,3,CeNiSb
0.0,Ce-Ni-Sb,3,CeNiSb2
0.081199999999999,Ce-Ni-Sn,3,CeNiSn
0.0,Ce-Ni-Sn,3,CeNiSn
0.0,Ce-Ni-Sn,3,CeNiSn2
0.0,Ce-H-Ni-Sn,4,CeNiSnH
0.0,Ce-H-Ni-Sn,4,CeNiSnH2
0.0,Ce-O,2,CeO
0.8878000000000004,Ce-O,2,CeO2
1.9046,Ce-O,2,CeO2
0.0,Ce-O,2,CeO2
1.8647,Ce-O,2,CeO2
0.0,Ce-O,2,CeO3
0.0,Ce-F-O,3,CeOF
0.0,Ce-Os,2,CeOs2
0.0,Ce-Os-Ru,3,CeOsRu
0.0,Ce-P,2,CeP
0.0,Ce-P,2,CeP2
0.0,Ce-N-O-P,4,CeP2(NO4)2
1.3065,C-Ce-H-O-P,5,CeP2H2CO6
0.0,Ce-N-O-P,4,CeP2N2O9
0.0,Ce-P,2,CeP3
3.8196,Ce-H-O-P,4,CeP3H8O7
0.0,Ce-N-O-P,4,CeP4NO12
0.0,Ce-P,2,CeP5
0.0,Ce-Ir-P,3,CePIr
0.005,Ce-F-N-O-P,5,CePN(O2F)2
0.0,Ce-O-P,3,CePO4
0.0791000000000003,Ce-O-P,3,CePO4
0.1039000000000003,Ce-O-P,3,CePO4
0.1040999999999998,Ce-O-P,3,CePO4
0.0,C-Ce-Os-P,4,CePOs2C
0.0,Ce-P-Pd,3,CePPd
0.0,C-Ce-P-Ru,4,CePRu2C
0.0,Ce-O-P-Ru,4,CePRuO
0.0,Ce-Pa,2,CePa3
0.0,Ce-O-Pa,3,CePaO4
0.0,Ce-Pb,2,CePb2
0.0,Ce-Pb,2,CePb3
0.0,Au-Ce-Pb,3,CePbAu
0.0,Au-Ce-Pb,3,CePbAu2
0.7348999999999997,Ce-O-Pb,3,CePbO3
0.0,Ce-Pd,2,CePd
0.0,Ce-Pd,2,CePd2
0.0,Ce-Pd-Pt,3,CePd2Pt
0.0,Ce-Pd,2,CePd3
0.0,Ce-Pd,2,CePd5
0.0,Ce-Pd,2,CePd7
0.0,Ce-Pd-Pt,3,CePdPt4
0.0,Ce-Pd-Rh,3,CePdRh2
0.0,Ce-Pm,2,CePm3
0.0,Ce-Mg-Pm,3,CePmMg2
0.0,Ce-Pm-Tl,3,CePmTl2
0.0,Ce-Pm-Zn,3,CePmZn2
0.0,Ce-O-Pr,3,CePr2O6
0.0,Ce-Pr,2,CePr3
0.0,Ce-O-Pr,3,CePr3O8