eg,chemsys,nelements,formula
0.0,As-Ga-Te,3,Ga3Te3As
2.6855,B-Ga-O,3,Ga4B2O9
3.2219,B-Ga-O,3,Ga4B2O9
2.8782,Bi-Ga-O,3,Ga4Bi2O9
0.0,As-Bi-Ga,3,Ga4Bi3As
0.0,Bi-Ga-N,3,Ga4Bi3N
0.0,As-Bi-Ga,3,Ga4BiAs3
0.1078999999999998,As-Bi-Ga,3,Ga4BiAs3
0.0,Fe-Ga,2,Ga4Fe3
2.0569,Ga-Ge-O,3,Ga4GeO8
0.0,Ga-Ni-Pd,3,Ga4Ni3Pd
0.0,Ga-Ni-Pt,3,Ga4Ni3Pt
0.3549000000000002,Ga-O,2,Ga4O5
2.4256999999999995,Ga-O-Si,3,Ga4SiO8
1.3431000000000002,Ga-P-S,3,Ga5(PS)3
0.0,Ag-Ga,2,Ga5Ag13
0.3934999999999999,Cu-Ga-Se,3,Ga5CuSe8
0.4065999999999996,Cu-Ga-Te,3,Ga5CuTe8
0.0,Fe-Ga,2,Ga5Fe6
0.0,Ga-Ir,2,Ga5Ir3
0.0,Ga-Ni,2,Ga5Ni
0.0,Ga-Pd,2,Ga5Pd
0.0,Ga-Pd,2,Ga5Pd13
0.0,Ga-Rh,2,Ga5Rh3
0.0,Ga-W,2,Ga5W2
1.7148000000000003,Fe-Ga-O,3,Ga7(Fe3O8)3
0.0,Ga-Ni,2,Ga7Ni3
0.0,Ga-Pd,2,Ga7Pd3
0.0,Ga-Pt,2,Ga7Pt3
0.0,Ga-Ir,2,Ga9Ir2
0.0,Ga-Ni,2,Ga9Ni13
0.0,Ga-Rh,2,Ga9Rh2
0.0,Ag-Ga,2,GaAg
0.6700999999999997,Ag-Ga-P-Se,4,GaAg(PSe3)2
3.1128,Ag-Ga-O-S,4,GaAg(SO4)2
0.0,Ag-Ga,2,GaAg2
0.0,Ag-Ga,2,GaAg3
0.0,Ag-F-Ga,3,GaAg3F6
1.662,Ag-Ga-Ge-S,4,GaAgGeS4
0.5611000000000002,Ag-Ga-O,3,GaAgO2
0.3037000000000001,Ag-Ga-O,3,GaAgO2
0.5832999999999999,Ag-Ga-O,3,GaAgO2
0.2884,Ag-Ga-O,3,GaAgO2
0.7168000000000001,Ag-Ga-S,3,GaAgS2
0.9622000000000002,Ag-Ga-S,3,GaAgS2
1.0204999999999995,Ag-Ga-S,3,GaAgS2
0.0,Ag-Ga-Se,3,GaAgSe2
0.2491999999999998,Ag-Ga-Se,3,GaAgSe2
0.6068999999999998,Ag-Ga-S-Se,4,GaAgSeS
0.6333,Ag-Ga-S-Se,4,GaAgSeS
0.8903000000000001,Ag-Ga-Se-Sn,4,GaAgSnSe4
0.8816000000000002,Ag-Ga-Se-Sn,4,GaAgSnSe4
0.0,Ag-Ga-Te,3,GaAgTe2
0.1926000000000001,Ag-Ga-Te,3,GaAgTe2
0.2464999999999997,Ag-Ga-Se-Te,4,GaAgTeSe
0.0,As-Ga,2,GaAs
0.1861000000000001,As-Ga,2,GaAs
0.2238000000000002,As-Ga,2,GaAs
0.0,As-Ga-W,3,GaAs2W
0.0,As-Ga,2,GaAs3
3.0849,As-Ga-O,3,GaAsO4
3.0694,As-Ga-O,3,GaAsO4
0.0,As-Ga-Pd,3,GaAsPd5
0.0,As-Ga-Rh,3,GaAsRh4
0.0,Au-Ga,2,GaAu
0.0,Au-Ga,2,GaAu2
0.0,Au-Ga-O,3,GaAuO2
0.0,B-Ga-O-P,4,GaB2(PO6)2
3.236,B-Ga-N,3,GaB2N3
3.710900000000001,B-Ga-N,3,GaB3N4
3.1499000000000006,B-Ga-N,3,GaBN2
3.8639,B-Ga-O,3,GaBO3
0.0,B-Ga-O,3,GaBO3
3.3713999999999995,B-Ga-O-Pb,4,GaBPbO4
0.0,Bi-Ga,2,GaBi
0.9973,Bi-Ga-N,3,GaBi2N3
0.0,Bi-Ga,2,GaBi3
1.0822999999999996,Bi-Ga-N,3,GaBiN2
1.2244000000000002,Bi-Ga-O,3,GaBiO3
1.8794000000000004,Bi-Ga-O,3,GaBiO3
3.0525,Bi-Ga-O,3,GaBiO3
0.0,Bi-Ga-S,3,GaBiS
0.0,C-Ga,2,GaC
0.0,C-Ga,2,GaC3
0.0,C-Ga,2,GaC6
4.1775,Cl-Ga,2,GaCl3
4.202999999999999,Cl-Ga,2,GaCl3
0.0458999999999999,Cl-Ga,2,GaCl3
2.6954,Cl-Ga-O,3,GaClO
0.0,Co-Ga,2,GaCo
0.0,Co-Ga-N,3,GaCo2N3
0.0,Co-Ga-Ni,3,GaCo2Ni
0.0,Co-Ga,2,GaCo3
0.0,Co-Ga,2,GaCo4
0.0,Co-Ga-Ge,3,GaCo4Ge3
0.0,Co-Ga-N,3,GaCoN2
0.9749,Cu-Ga-O-W,4,GaCu(WO4)2
0.0,Cu-Ga,2,GaCu2
0.0,Cu-Ga,2,GaCu3
0.0,Cu-Ga-Hg-Se,4,GaCu3HgSe4
0.0,Cu-Ga,2,GaCu4
0.0,Cu-Ga-Ni,3,GaCu4Ni15
0.0,Br-Cu-Ga,3,GaCuBr3
1.9902,Br-Cu-Ga,3,GaCuBr4
1.8173,Cl-Cu-Ga,3,GaCuCl4
0.7335000000000003,Cu-Ga-Ge-Se,4,GaCuGeSe4
1.6967,Cu-Ga-I,3,GaCuI4
0.0,Cu-Ga-Ni,3,GaCuNi2
0.7812999999999999,Cu-Ga-O,3,GaCuO2
0.1034000000000001,Cu-Ga-O,3,GaCuO2
0.7286999999999999,Cu-Ga-O,3,GaCuO2
0.0,Cu-Ga-Pd,3,GaCuPd2
0.0,Cu-Ga-Pt,3,GaCuPt2
0.0,Cu-Ga-Rh,3,GaCuRh2
0.1839000000000004,Cu-Ga-S,3,GaCuS2
0.7056000000000004,Cu-Ga-S,3,GaCuS2
0.0,Cu-Ga-Se,3,GaCuSe2
0.0398,Cu-Ga-Se,3,GaCuSe2
0.4579,Cu-Ga-S-Se,4,GaCuSeS
0.4173,Cu-Ga-Se-Sn,4,GaCuSnSe4
0.0,Cu-Ga-Te,3,GaCuTe2
0.2057999999999999,Cu-Ga-Te,3,GaCuTe2
0.0242,Cu-Ga-Se-Te,4,GaCuTeSe
0.0,F-Ga,2,GaF3
4.7051,F-Ga,2,GaF3
0.0,Fe-Ga,2,GaFe
1.6718000000000002,Bi-Fe-Ga-O,4,GaFe(BiO3)2
0.0,Fe-Ga-N,3,GaFe19N5
0.0,Fe-Ga,2,GaFe2
0.0,Ag-Fe-Ga-Te,4,GaFe2AgTe4
2.1137999999999995,B-Fe-Ga-O,4,GaFe2BO5
0.0,Co-Fe-Ga,3,GaFe2Co
0.0,Co-Fe-Ga-Si,4,GaFe2Co4Si
0.0,Fe-Ga-N,3,GaFe2N3
0.0,Fe-Ga-Ni,3,GaFe2Ni
0.0,Fe-Ga,2,GaFe3
0.0,As-Fe-Ga,3,GaFe3As
0.0,Fe-Ga-N,3,GaFe3N
0.0,Fe-Ga,2,GaFe4
0.0,Co-Fe-Ga-Si,4,GaFe4Co8Si3
0.0,Fe-Ga-N,3,GaFe7N2
0.0,As-Fe-Ga,3,GaFeAs2
0.0,Co-Fe-Ga,3,GaFeCo2
0.0,Fe-Ga-Ge,3,GaFeGe
0.0,Fe-Ga-Ir,3,GaFeIr2
0.0,Fe-Ga-N,3,GaFeN2
0.0,Fe-Ga-Ni,3,GaFeNi2
0.0,Fe-Ga-Ni-O,4,GaFeNiO4
0.0,Fe-Ga-O,3,GaFeO3
0.1724000000000001,Fe-Ga-O,3,GaFeO3
2.1227000000000005,Fe-Ga-O,3,GaFeO3
0.0,Fe-Ga-Rh,3,GaFeRh2
0.0,Fe-Ga-Ru,3,GaFeRu2
0.0,Ga-Ge,2,GaGe
0.0,Ga-Ge-Mo-S,4,GaGe(MoS2)4
3.7018,C-Ga-Ge-H-N-O,6,GaGe2H5CNO6
0.0,C-Ga-Ge-H-N-O,6,GaGe2H5CNO6
0.0,Ga-Ge,2,GaGe3
0.0,Ga-Ge-Rh,3,GaGe3Rh4
1.4324,C-Ga-Ge-H-N-O,6,GaGe5H6C4NO12
0.0,Ga-Ge-O,3,GaGeO3
0.0,Ga-Ge-Pt,3,GaGePt6
0.0,Ga-Ge-Ru,3,GaGeRu2
0.1672000000000002,Ga-Ge-Te,3,GaGeTe
0.0,Ga-Ge-Te,3,GaGeTe2
0.0,Ga-H,2,GaH
5.216200000000001,F-Ga-H-N-O,5,GaH12N3(OF2)3
3.4496,C-Ga-H-N,4,GaH13(C2N)2
0.0,Ga-H,2,GaH3
5.3089,F-Ga-H-N,4,GaH3NF3
5.1596,F-Ga-H-N,4,GaH4NF4
2.7259,F-Ga-H-N,4,GaH5(NF)2
5.2732,F-Ga-H-N,4,GaH6N2F3
5.0153,F-Ga-H-N,4,GaH7(NF2)2
4.788,Cl-Ga-H,3,GaHCl2
3.0016,Ga-H-O,3,GaHO2
1.9112000000000005,Ga-H-O,3,GaHO2
1.6097999999999997,Ga-H-O,3,GaHO2
3.2607000000000004,Ga-H-O,3,GaHO2
1.6336,Ga-H-O,3,GaHO2
1.9492000000000005,Ga-H-O,3,GaHO2
2.8219,Ga-H-O,3,GaHO2
4.1423000000000005,Ga-H-O-Se,4,GaHSeO4
0.0,Ga-Hg,2,GaHg3
2.8274,Cl-Ga-Hg,3,GaHgCl4
0.0,Ga-Hg-O,3,GaHgO2
0.0,Ga-Ir,2,GaIr
0.0,C-Ga-Mo,3,GaMo2C
0.0,Ga-Mo,2,GaMo3
0.0,Ga-Mo-S-Se,4,GaMo4(SeS)4
0.0,C-Ga-Mo-S,4,GaMo4CS8
1.0894,Ga-Mo-N,3,GaMoN3
0.9819,Ga-N,2,GaN
0.8257000000000003,Ga-N,2,GaN
0.1886999999999998,Ga-N,2,GaN
0.4207000000000001,Ga-N,2,GaN
1.7264999999999997,Ga-N,2,GaN
1.5701000000000005,Ga-N,2,GaN
1.2545,Ga-N-O,3,GaN5O14
1.1539,Ga-N-O,3,GaN5O14
0.0,Ga-Ni,2,GaNi
0.0,Ga-Ni-P,3,GaNi10P3
0.0,Ga-Ni,2,GaNi2
3.0727999999999995,B-Ga-Ni-O,4,GaNi2BO5
0.0,Ga-Ge-Ni,3,GaNi2Ge3
0.0,Ga-Ni-Pt,3,GaNi2Pt
0.0,Ga-Ni,2,GaNi3
0.0,As-Ga-Ni,3,GaNi3As
0.0,C-Ga-Ni,3,GaNi3C
0.0,Ga-Ni-Sb,3,GaNi3Sb
0.0,Ga-Ge-Ni,3,GaNi4Ge3
0.0,Ga-Ge-Ni,3,GaNi6Ge
0.0,B-Ga-Ni,3,GaNi9B8
0.0,Ga-Ni-O,3,GaNiO3
0.0,Ga-Ni-Rh,3,GaNiRh2
0.0,Ga-O,2,GaO
0.0,Ga-O,2,GaO2
0.0,Ga-O,2,GaO3
0.8334000000000001,Ga-P,2,GaP
1.6039,Ga-P,2,GaP
1.3002000000000002,Ga-P,2,GaP
0.0,Ga-P,2,GaP
0.2108000000000007,Ga-P,2,GaP
4.892,Ga-H-O-P,4,GaP2H11O12
4.854900000000001,C-Cl-Ga-H-P,5,GaPH11C3Cl
0.2191,Ga-H-N-O-P,5,GaPH4NO5
0.9486,Ga-N-O-P,4,GaPNO5
0.0230999999999999,Ga-N-O-P,4,GaPNO5
4.439100000000001,Ga-O-P,3,GaPO4
4.4398,Ga-O-P,3,GaPO4
4.698,Ga-O-P,3,GaPO4
0.0,Ga-P-Pd,3,GaPPd5
0.0,Ga-P-Pt,3,GaPPt5
0.0,Ga-Pb,2,GaPb3
0.0,Ga-Pd,2,GaPd
0.0,Ga-Pd,2,GaPd2
0.0,Ga-Pd,2,GaPd3
0.0,Ga-Pt,2,GaPt
0.0,Ga-Pt,2,GaPt2
0.0,Ga-Pt,2,GaPt3
0.0,C-Ga-Pt,3,GaPt3C
0.0,Ga-O-Pt,3,GaPtO2
0.0,Ga-Re,2,GaRe
0.0,As-Ga-Re,3,GaReAs
0.0,Ga-Rh,2,GaRh
0.0,Ga-Rh,2,GaRh3
0.0,Ga-Ru,2,GaRu
2.0036,Ga-S,2,GaS
2.0183,Ga-S,2,GaS
1.8665,Ga-S,2,GaS
0.0,Ga-N-O-S,4,GaS2NO8
0.0,Ga-Sb,2,GaSb
0.9889,Ga-N-Sb,3,GaSb2N3
0.0,Ga-Sb,2,GaSb3
1.3889999999999991,Ga-O-Pb-Sb,4,GaSb3Pb4O13
0.7966999999999995,Ga-O-Sb,3,GaSbO4
1.2233,Ga-Se,2,GaSe
1.2405999999999997,Ga-Se,2,GaSe
1.2386999999999997,Ga-Se,2,GaSe
0.0,Ga-Se,2,GaSe
1.2121,Ga-Se,2,GaSe
0.0,Ga-N-O-Se,4,GaSe2NO8
2.51,Cl-Ga-Se,3,GaSeCl
0.0,Ga-Mo-S-Si,4,GaSi(MoS2)4
1.6923000000000012,Ga-N-Si,3,GaSi2N3
0.0,Ga-Si,2,GaSi3
2.5994,C-Ga-N-Si,4,GaSi3C3N
0.5371000000000006,C-Ga-N-Si,4,GaSiCN
0.0,Ga-Ni-Si,3,GaSiNi6
0.0,Ga-O-Si,3,GaSiO3
0.0,Ga-Ru-Si,3,GaSiRu2
0.0,Ga-Sn,2,GaSn3
0.0,Ga-O-Sn,3,GaSnO3
0.0,Ga-Se-Sn,3,GaSnSe2
0.0,Ga-Tc,2,GaTc
0.0,Ga-Tc-W,3,GaTc2W
0.7852999999999999,Ga-Te,2,GaTe
1.0066000000000002,Ga-Te,2,GaTe
0.0,Ga-Mo-Se-Te,4,GaTe4(MoSe)4
2.1702,Cl-Ga-Te,3,GaTeCl
0.0,Ga-O-Te,3,GaTeO3
3.7146,F-Ga-O-Te,4,GaTeO3F
0.0,Ga-N-W,3,GaW2N3
0.0,Gd,1,Gd
0.0,Al-Cr-Gd,3,Gd(Al2Cr)4
0.0,Al-Cu-Gd,3,Gd(Al2Cu)4
0.0,Al-Fe-Gd,3,Gd(Al2Fe)4
0.0,Al-Gd-Ni,3,Gd(Al3Ni)3
0.0,Al-Gd-Ru,3,Gd(Al5Ru)2
0.0,Al-C-Gd,3,Gd(AlC)3
0.0,Al-Cr-Gd,3,Gd(AlCr)6
0.0,Al-Cu-Gd,3,Gd(AlCu)6
0.0,Al-Fe-Gd,3,Gd(AlFe)6
0.0,Al-Gd-Ge,3,Gd(AlGe)2
0.0,Al-Gd-Si,3,Gd(AlSi)2
0.0,B-C-Gd,3,Gd(BC)2
0.0,B-Gd-Ir,3,Gd(BIr)4
2.7580000000000005,B-Gd-O,3,Gd(BO2)3
0.128,B-Gd-O,3,Gd(BO2)6
0.0,B-Gd-Os,3,Gd(BOs)2
0.0,B-Gd-Rh,3,Gd(BRh)4
0.0,B-Gd-Ru,3,Gd(BRu)2
0.0,Bi-Gd-O,3,Gd(BiO2)4
1.8058,C-Gd-N,3,Gd(C2N3)3
0.0,C-Gd-O,3,Gd(CO3)2
2.2925,Cl-Gd-O,3,Gd(ClO4)3
0.0,B-Co-Gd,3,Gd(Co2B)6
0.0,Co-Gd-Mo,3,Gd(Co5Mo)2
0.0,B-Co-Gd,3,Gd(CoB)2
0.0,B-Co-Gd,3,Gd(CoB)4
0.0,Co-Gd-Ge,3,Gd(CoGe)2
0.0,Co-Gd-Si,3,Gd(CoSi)2
0.0,Cr-Fe-Gd,3,Gd(CrFe5)2
0.0,Cr-Gd-Si,3,Gd(CrSi)2
0.0,Cu-Gd-Ge,3,Gd(CuGe)2
0.0,Cu-Gd-O,3,Gd(CuO2)2
0.9673000000000008,Cu-Gd-S,3,Gd(CuS)3
0.0,Cu-Gd-Si,3,Gd(CuSi)2
0.0,Cu-Gd-Sn,3,Gd(CuSn)2
0.0,Fe-Gd-Si,3,Gd(Fe5Si)2
0.0,Fe-Gd-Ge,3,Gd(FeGe)2
0.0,Fe-Gd-P,3,Gd(FeP3)4
0.0,Fe-Gd-Si,3,Gd(FeSi)2
0.0,Fe-Ga-Gd,3,Gd(Ga2Fe)4
0.0,Fe-Ga-Gd,3,Gd(GaFe)6
0.0,Gd-Ge-Rh,3,Gd(Ge2Rh3)2
0.0,Gd-Ge-Pd,3,Gd(GePd)2
0.0,Gd-Ge-Rh,3,Gd(GeRh)2
0.2498,Gd-H-O,3,Gd(HO)3
1.0029,Gd-Lu-S,3,Gd(LuS2)3
0.0,Gd-Ge-Mn,3,Gd(MnGe)2
0.0,Gd-Mn-Si,3,Gd(MnSi)2
0.0,B-Gd-Ni,3,Gd(Ni2B)6
0.0,As-Gd-Ni,3,Gd(NiAs)2
0.0,Gd-Ge-Ni,3,Gd(NiGe)2
0.0,Gd-Ni-P,3,Gd(NiP)2
0.0,Gd-Ni-Sb,3,Gd(NiSb)2
1.3121,Gd-O-P,3,Gd(PO3)3
0.0,Gd-P-Ru,3,Gd(PRu)2
0.0,Gd-O-Pd,3,Gd(PdO2)2
0.0,Gd-Re-Si,3,Gd(Re2Si)2
0.0,Ag-Gd-Si,3,Gd(SiAg)2
0.0,Au-Gd-Si,3,Gd(SiAu)2
0.0,Gd-Ir-Si,3,Gd(SiIr)2
0.0,Gd-Ni-Si,3,Gd(SiNi)2
0.0,Gd-Ni-Si,3,Gd(SiNi5)2
0.0,Gd-Os-Si,3,Gd(SiOs)2
0.0,Gd-Pd-Si,3,Gd(SiPd)2
0.0,Gd-Pt-Si,3,Gd(SiPt)2
0.0,Gd-Rh-Si,3,Gd(SiRh)2
0.0,Gd-Ru-Si,3,Gd(SiRu)2
0.0,Gd-Ru-Sn,3,Gd(Sn3Ru2)2
0.0,Fe-Gd-V,3,Gd(VFe5)2
0.0,Co-Gd-Pb,3,Gd12Co6Pb
0.0,Al-Gd-Ir,3,Gd2(Al3Ir)3
0.0,Al-Gd-Rh,3,Gd2(Al3Rh)3
0.0,Co-Ga-Gd,3,Gd2(Ga3Co)3
0.0,Ga-Gd-Ir,3,Gd2(Ga3Ir)3
3.0587,Gd-Mo-O,3,Gd2(MoO4)3
1.4311999999999998,Gd-O-S,3,Gd2(SO4)3
0.4193999999999999,Gd-O-S,3,Gd2(SO4)3
2.9956,Gd-O-W,3,Gd2(WO4)3
0.0,Gd-Ge-Zn,3,Gd2(Zn2Ge)3
0.0,Ag-Au-Gd,3,Gd2AgAu
0.0,Ag-Gd-Hg,3,Gd2AgHg
0.0,Ag-Gd-Ir,3,Gd2AgIr
0.0,Ag-Gd-Rh,3,Gd2AgRh
0.0,Ag-Gd-Ru,3,Gd2AgRu
0.0,Al-Gd-Ge,3,Gd2Al3Ge4
0.0,Al-Co-Gd-Ge,4,Gd2Al4CoGe2
0.0,Al-Au-Gd-Si,4,Gd2Al6Si4Au
0.0,Al-Gd-Pt-Si,4,Gd2Al6Si4Pt
0.0,Al-Cd-Gd,3,Gd2AlCd
0.0,Al-Co-Gd,3,Gd2AlCo2
0.0,Al-Fe-Gd,3,Gd2AlFe3
0.0,Al-Gd-Ge,3,Gd2AlGe2
0.0,Al-Gd-Ge,3,Gd2AlGe6
0.0,Al-Gd-Ni,3,Gd2AlNi2
0.0,Al-Gd-Zn,3,Gd2AlZn
2.2475000000000005,As-Gd-O,3,Gd2AsO5
0.0,B-C-Gd,3,Gd2B3C2
2.8237,B-Gd-O,3,Gd2B4O9
0.0,B-Gd,2,Gd2B5
0.0,B-Gd-Os,3,Gd2B6Os
3.2492,Be-Gd-Ge-O,4,Gd2Be2GeO7
3.3147999999999995,Be-Gd-O-Si,4,Gd2Be2SiO7
0.0,Bi-Gd-O,3,Gd2BiO2
0.2294999999999998,Br-Gd,2,Gd2Br3
0.0,C-Gd,2,Gd2C
2.4609,C-Gd-N-O,4,Gd2C(NO)2
0.0,C-Gd,2,Gd2C3
0.0,Br-C-Gd,3,Gd2CBr
0.0,C-Cl-Gd,3,Gd2CCl
0.4861,C-Cl-Gd,3,Gd2CCl2
0.7328000000000001,C-F-Gd,3,Gd2CF2
0.0,C-Gd-I,3,Gd2CI
0.0,Cd-Gd-Hg,3,Gd2CdHg
0.0,Cd-Gd-In,3,Gd2CdIn
0.0,Cd-Gd-O,3,Gd2CdO4
0.0,Cd-Gd-Pd,3,Gd2CdPd2
1.4040999999999997,Cd-Gd-S,3,Gd2CdS4
0.9607,Cd-Gd-Se,3,Gd2CdSe4
0.1814,Cl-Gd,2,Gd2Cl3
0.1617000000000001,Cl-Gd,2,Gd2Cl3
0.0,Co-Gd,2,Gd2Co17
0.0,Co-Gd-I,3,Gd2Co2I
0.0,B-Co-Gd,3,Gd2CoB3
0.0,Co-Gd-Ni,3,Gd2CoNi3
0.0,Co-Gd-Si,3,Gd2CoSi2
2.1634,Co-Gd-O-S-Te,5,Gd2CoTe2(SO7)2
0.0,C-Cr-Gd,3,Gd2Cr2C3
0.0,Cr-Gd-O,3,Gd2Cr2O5
1.9649,Cr-Gd-O-Sb,4,Gd2CrSbO7
0.6917,Cu-Gd-Ge-O,4,Gd2Cu(GeO3)4
0.6356999999999999,Cu-Gd-Ge-O,4,Gd2Cu(GeO4)2
0.0,Au-Cu-Gd,3,Gd2CuAu
0.0,Cu-Gd-O,3,Gd2CuO4
0.0,Cu-Gd-Os,3,Gd2CuOs
0.0,Cu-Gd-Ru,3,Gd2CuRu
0.0112,Cu-Gd-O-S-Te,5,Gd2CuTe2(SO7)2
0.0,Fe-Gd-P,3,Gd2Fe12P7
0.0,Fe-Gd,2,Gd2Fe17
0.0,C-Fe-Gd,3,Gd2Fe17C
0.0,C-Fe-Gd,3,Gd2Fe17C3
0.0,Fe-Gd-H,3,Gd2Fe17H3
0.0,Fe-Gd-N,3,Gd2Fe17N2
0.0,Fe-Gd-I,3,Gd2Fe2I
0.0,Fe-Gd-Si,3,Gd2Fe5Si8
1.8178,Fe-Gd-O-Sb,4,Gd2FeSbO7
0.0,Co-Ga-Gd,3,Gd2Ga8Co
0.0,Ag-Ga-Gd,3,Gd2GaAg
2.3774,Ga-Gd-O-Sb,4,Gd2GaSbO7
0.0,Br-Gd-Ge,3,Gd2GeBr2
2.4793000000000003,Gd-Ge-Mo-O,4,Gd2GeMoO8
0.0,Gd-Ge-O,3,Gd2GeO5
2.8263,Gd-Hf-O,3,Gd2Hf2O7
3.1449000000000003,Gd-Hf-O,3,Gd2HfO5
2.9160000000000004,Gd-Hf-O,3,Gd2HfO5
3.1575000000000006,Gd-Hf-O,3,Gd2HfO5
1.7532,Gd-Hg-O,3,Gd2HgO4
0.0,Gd-In,2,Gd2In
0.0,Ag-Gd-In,3,Gd2InAg
0.0,Gd-Ge-In,3,Gd2InGe2
0.0,Gd-Hg-In,3,Gd2InHg
0.0,Gd-In-Ni,3,Gd2InNi2
0.0,Gd-In-Pd,3,Gd2InPd2
2.3762000000000003,Gd-In-O-Sb,4,Gd2InSbO7
0.0,Au-Gd-Ir,3,Gd2IrAu
0.0,Gd-Ir-Pd,3,Gd2IrPd
0.0,Gd-Ir-Rh,3,Gd2IrRh
0.0,Gd-Ir-Ru,3,Gd2IrRu
0.0,Gd-Mg,2,Gd2Mg
0.6021000000000001,Gd-Mg-O,3,Gd2Mg2O5
0.0,Al-Gd-Mg,3,Gd2MgAl
0.0,Cd-Gd-Mg,3,Gd2MgCd
1.6367999999999996,Cr-Gd-Mg-O,4,Gd2MgCr2O8
0.0,Gd-Ge-Mg,3,Gd2MgGe2
0.0,Gd-In-Mg,3,Gd2MgIn
0.0,Gd-Ir-Mg-O,4,Gd2MgIrO6
1.6193000000000002,Cl-Gd-Mg-Mo-O,5,Gd2MgMo2(ClO4)2
1.4198,Cl-Gd-Mg-Mo-O,5,Gd2MgMo2(ClO4)2
0.0,Gd-Mg-Ni,3,Gd2MgNi2
2.0358,Gd-Mg-O-Pt,4,Gd2MgPtO6
0.0,Gd-Mg-Ru,3,Gd2MgRu
0.0,Gd-Mg-S,3,Gd2MgS4
1.3708999999999998,Gd-Mg-S,3,Gd2MgS4
0.9533999999999998,Gd-Mg-Se,3,Gd2MgSe4
0.0,Gd-Mg-Si,3,Gd2MgSi2
0.0,Gd-Mg-Tl,3,Gd2MgTl
1.7665000000000002,Gd-Mg-O-Tl-W,5,Gd2MgTl2(WO4)4
1.8432,Gd-Mg-O-Tl-W,5,Gd2MgTl2(WO4)4
1.4005,Gd-Mg-O-V,4,Gd2MgV2O8
0.0,C-Gd-Mn,3,Gd2Mn17C3
0.8407,Gd-Mn-O-Sb,4,Gd2Mn3Sb3O14
0.0114999999999998,Co-Gd-Mn-O,4,Gd2MnCoO6
0.0,Ga-Gd-Mn,3,Gd2MnGa6
0.0,Gd-Mn-Ni-O,4,Gd2MnNiO6
0.8582999999999998,Gd-Mn-S,3,Gd2MnS4
1.6004000000000005,Gd-Mn-O-Sb,4,Gd2MnSbO7
0.0,C-Gd-Mo,3,Gd2Mo2C3
0.0,Gd-Mo-O,3,Gd2Mo2O7
2.1748,Gd-Mo-O,3,Gd2MoO6
2.0419,Ga-Gd-Nb-O,4,Gd2NbGaO7
2.4048,Gd-In-Nb-O,4,Gd2NbInO7
0.0,Gd-Ni,2,Gd2Ni17
0.0,Gd-Ni-Sn,3,Gd2Ni2Sn
0.0,Gd-Ni,2,Gd2Ni7
0.0,B-Gd-Ni,3,Gd2NiB10
0.0,Gd-Ir-Ni,3,Gd2NiIr
0.0892000000000008,Gd-Ni-O,3,Gd2NiO4
0.0,Gd-Ni-O-Pt,4,Gd2NiPtO6
0.0,Gd-Ni-Ru,3,Gd2NiRu
0.0,Gd-Ni-O-Ru,4,Gd2NiRuO6
1.3250000000000002,Gd-O,2,Gd2O3
2.6983,Gd-O,2,Gd2O3
2.9056999999999995,Gd-O,2,Gd2O3
0.0,Gd-O,2,Gd2O3
0.0,Gd-P-Rh,3,Gd2P7Rh12
0.9544999999999996,Gd-Pb-S,3,Gd2PbS4
0.0,Gd-Pd-Rh,3,Gd2PdRh
0.0,Gd-Pd-Ru,3,Gd2PdRu
0.0,C-Gd-Re-Si,4,Gd2Re2Si2C
0.0,C-Gd-Re,3,Gd2ReC2
0.0,Gd-O-Re,3,Gd2ReO5
0.0,Gd-O-Ru,3,Gd2Ru2O7
0.0,Gd-Rh-Ru,3,Gd2RuRh
1.7211000000000003,Gd-O-S,3,Gd2S2O
0.4598,Gd-S,2,Gd2S3
0.5267,Gd-S,2,Gd2S3
1.1898,Cl-Gd-S,3,Gd2SCl4
1.5483000000000002,Cl-Gd-S,3,Gd2SCl4
2.0194,Gd-O-S,3,Gd2SO2
0.0,Gd-O-Sb,3,Gd2SbO2
2.3666,Gd-Nb-O-Sc,4,Gd2ScNbO7
1.3044000000000002,Gd-O-Se,3,Gd2Se2O
1.3547000000000002,Gd-O-Se,3,Gd2SeO2
0.0,Gd-Si,2,Gd2Si3
0.0,Gd-Ni-Si,3,Gd2Si3Ni
2.762,Gd-O-Si,3,Gd2SiO5
0.0,Gd-O-Si-Te,4,Gd2SiTeO4
0.0,Gd-O-Sn,3,Gd2Sn2O7
0.0,Au-Gd-Sn,3,Gd2SnAu2
0.0,Gd-S-Sn,3,Gd2SnS5
1.0708000000000002,Gd-O-Te,3,Gd2TeO2
0.0,Gd-O-Te,3,Gd2TeO6
0.0,Gd-O-Ti,3,Gd2Ti2O7
0.0,Cu-Gd-O-Ti,4,Gd2TiCuO6
2.8111000000000006,Gd-O-Ti,3,Gd2TiO5
2.8953,Gd-O-Ti,3,Gd2TiO5
2.7020000000000004,Gd-O-Ti,3,Gd2TiO5
2.7632000000000003,Gd-O-Ti-Zn,4,Gd2TiZnO6
0.0,Gd-Tl,2,Gd2Tl
0.0,Ag-Gd-Tl,3,Gd2TlAg
0.0,Cd-Gd-Tl,3,Gd2TlCd
0.0,Gd-Hg-Tl,3,Gd2TlHg
0.0,Gd-Tl-Zn,3,Gd2TlZn
1.0482000000000005,Gd-O-V,3,Gd2V2O7
0.9804999999999996,Gd-O-V,3,Gd2V2O7
1.6075,Fe-Gd-O-V,4,Gd2VFeO6
2.1613999999999995,Gd-O-W,3,Gd2W2O9
0.0,Gd-O-W,3,Gd2WO6
0.0,Gd-Zn,2,Gd2Zn17
0.0,Ag-Gd-Zn,3,Gd2ZnAg
0.0,Ga-Gd-Zn,3,Gd2ZnGa
0.0,Gd-Hg-Zn,3,Gd2ZnHg
0.0,Gd-In-Zn,3,Gd2ZnIn
0.0,Gd-O-Pt-Zn,4,Gd2ZnPtO6
0.0,Gd-Rh-Zn,3,Gd2ZnRh
0.0,Gd-Ru-Zn,3,Gd2ZnRu
0.3121,Gd-O-S-Te-Zn,5,Gd2ZnTe2(SO7)2
1.0690999999999995,Gd-O-Zr,3,Gd2Zr2O7
0.0,Gd-O-Zr,3,Gd2Zr2O7
2.7790000000000004,Gd-O-Zr,3,Gd2Zr2O7
0.0,Al-Gd-Ni,3,Gd3(AlNi3)2
0.0,Bi-Gd-O,3,Gd3(BiO4)2
0.0,Br-Gd-O,3,Gd3(BrO3)2
0.0,Co-Gd-Ge,3,Gd3(CoGe2)2
0.0,Cu-Gd-Ge,3,Gd3(CuGe)4
0.0,Ga-Gd-Ni,3,Gd3(GaNi3)2
0.0,C-Gd-Mn,3,Gd3(MnC3)2
0.0,Gd-P-Pd,3,Gd3(P3Pd10)2
0.0,Gd-Ni-Si,3,Gd3(SiNi3)2
0.0,Ag-Gd,2,Gd3Ag
0.0,Al-Gd,2,Gd3Al
0.0,Al-Gd-H-Ni,4,Gd3Al2(Ni2H3)3
0.0,Ag-Al-Gd,3,Gd3Al7Ag2
0.0,Al-C-Gd,3,Gd3AlC
0.0,Al-Gd-N,3,Gd3AlN
1.7693,As-Gd-O,3,Gd3AsO7
2.3103,As-Gd-O,3,Gd3AsO7
0.0,Au-Gd,2,Gd3Au
1.5063,Au-Gd-O,3,Gd3AuO6
2.8409000000000004,B-F-Gd-O,4,Gd3B2(O2F)3
0.0,B-Gd-W,3,Gd3B7W
3.2389,B-Gd-O-W,4,Gd3BWO9
0.4537000000000004,Be-Cr-Gd-S,4,Gd3BeCrS7
0.0,Bi-Gd-O-Ru,4,Gd3Bi(Ru2O7)2
0.0,Bi-Gd-O,3,Gd3BiO3
0.0610999999999997,C-Gd-I,3,Gd3CI3
0.0,Cd-Gd,2,Gd3Cd
0.0,B-Co-Gd,3,Gd3Co11B4
0.3003,Cu-Gd-Sb,3,Gd3Cu3Sb4
1.1604,Cu-Gd-S-Si,4,Gd3CuSiS7
0.0,Dy-Gd,2,Gd3Dy
0.0,Er-Gd,2,Gd3Er
0.0,Er-Gd-Ni,3,Gd3ErNi4
2.5521000000000003,Fe-Gd-O,3,Gd3FeO6
0.0,Ga-Gd,2,Gd3Ga
0.0,Ga-Gd,2,Gd3Ga2
0.0,C-Ga-Gd,3,Gd3GaC
2.7288999999999994,Ga-Gd-O,3,Gd3GaO6
0.0,Gd-Ge-O,3,Gd3GeO8
0.0,Gd-Ho,2,Gd3Ho
0.0,Gd-I,2,Gd3I
0.0,Gd-In,2,Gd3In
0.0,C-Gd-In,3,Gd3InC
0.0,Gd-In-N,3,Gd3InN
2.2306,Gd-In-O,3,Gd3InO6
2.8589,Gd-In-O,3,Gd3InO6
0.0,Gd-Lu,2,Gd3Lu
0.0,Ga-Gd-Mn-Si,4,Gd3Mn3Ga2Si
0.0,B-Gd-Mn,3,Gd3MnB7
1.9483,Cl-Gd-N,3,Gd3NCl6
1.6602,Gd-Nb-O,3,Gd3NbO7
2.3502,Gd-Nb-O,3,Gd3NbO7
2.5311,Gd-Nb-O,3,Gd3NbO7
2.1570000000000005,Gd-Nb-O,3,Gd3NbO7
2.282,Gd-Nb-O,3,Gd3NbO7
1.9502,Gd-Nb-O,3,Gd3NbO7
0.0,B-Gd-Ni,3,Gd3Ni19B10
0.0,B-Gd-Ni,3,Gd3Ni7B2
0.0,Gd-O-Os,3,Gd3OsO7
0.0,Gd-P-Pd,3,Gd3P4Pd7
0.0,C-Gd-Pb,3,Gd3PbC
0.0,Gd-Pd,2,Gd3Pd2
0.0,Gd-Pt,2,Gd3Pt
0.0,B-Gd-Re,3,Gd3ReB7
0.0,Gd-O-Re,3,Gd3ReO7
0.1389,Gd-O-Ru,3,Gd3RuO7
0.0,Gd-S,2,Gd3S4
1.9623,F-Gd-O-S,4,Gd3SOF5
0.0,Gd-Sb,2,Gd3Sb4
0.2492999999999998,Gd-O-Sb,3,Gd3SbO3
2.4705,Gd-O-Sb,3,Gd3SbO7
2.4773,Gd-O-Sb,3,Gd3SbO7
2.5327,Gd-O-Sb,3,Gd3SbO7
0.0,Gd-S-Sc,3,Gd3Sc2S7
1.754,Gd-N-O-Se,4,Gd3Se2NO
0.0,Gd-Se,2,Gd3Se4
0.0,Gd-Si,2,Gd3Si
2.1851000000000003,Br-Gd-O-Si,4,Gd3Si2BrO8
0.0,C-Gd-Sn,3,Gd3SnC
2.3607,Gd-O-Ta,3,Gd3TaO7
2.5573,Gd-O-Ta,3,Gd3TaO7
2.5638,Gd-O-Ta,3,Gd3TaO7
0.0,Gd-Mn-Si-Ti,4,Gd3Ti2MnSi3
0.0,C-Gd-Tl,3,Gd3TlC
2.5504,Cl-Gd-O-W,4,Gd3W(ClO2)3
0.0,Gd-Y,2,Gd3Y
1.5032,Fe-Gd-O-Y,4,Gd3Y(FeO3)4
0.0,Fe-Gd-Y,3,Gd3Y3Fe23
2.9007999999999994,Gd-O-Y,3,Gd3YO6
2.9924,Gd-O-Y,3,Gd3YO6
2.9739,Gd-O-V-Y,4,Gd3YV4O16
0.0,Gd-Zn,2,Gd3Zn
0.0,Gd-Ge-Zn,3,Gd3Zn5Ge
0.0,B-C-Gd,3,Gd4B3C4
2.905,B-F-Gd-O,4,Gd4B4O11F2
0.0,Co-Gd,2,Gd4Co3
0.0,B-Co-Gd,3,Gd4CoB13
0.0,Cu-Gd-P,3,Gd4Cu5P7
0.0,Ga-Gd-Pd,3,Gd4Ga12Pd
0.0,Co-Ga-Gd,3,Gd4Ga16Co3
0.0,C-Gd-Ni,3,Gd4Ni13C4
0.0,B-Gd-Ni,3,Gd4NiB13
1.0999,Gd-O-Pd,3,Gd4PdO7
0.0,Gd-Sb,2,Gd4Sb3
0.3285,Gd-O-Se-Ti,4,Gd4Ti(SeO)4
0.0,Al-Co-Gd,3,Gd5(AlCo)2
0.0,As-Gd-O,3,Gd5(AsO6)2
0.0,Gd-O-Ru,3,Gd5(RuO7)2
1.1215000000000002,Ag-Gd-S,3,Gd5AgS8
0.9084000000000004,Ag-Gd-Se,3,Gd5AgSe8
0.0,B-Gd-O,3,Gd5B3O13
0.0,Bi-Cu-Gd,3,Gd5CuBi3
0.0,Gd-Pb,2,Gd5Pb3
0.0,C-Cl-Gd,3,Gd6C3Cl5
0.0748000000000002,Cl-Co-Gd,3,Gd6CoCl10
0.0,Fe-Gd,2,Gd6Fe23
1.3417,Gd-In-Mg-O,4,Gd6MgIn2O12
2.0717000000000003,Gd-Mg-O-W,4,Gd6MgWO12
0.9026,Gd-Mg-O-W,4,Gd6MgWO12
0.0,Gd-Mn,2,Gd6Mn23
2.5571,Gd-O-W,3,Gd6WO12
0.0,C-Gd-Rh,3,Gd8Rh5C12
0.0,Gd-O-Sb,3,Gd8Sb3O8
0.0,Ag-Gd,2,GdAg
2.8117000000000005,Ag-Gd-O-W,4,GdAg(WO4)2
0.0,Ag-Gd,2,GdAg2
0.0,Ag-Gd,2,GdAg3
0.0,Ag-Gd-Ge,3,GdAgGe
0.0,Ag-Gd-Se,3,GdAgSe2
0.0970999999999997,Ag-Gd-Se,3,GdAgSe2
0.0,Ag-Gd-Sn,3,GdAgSn2
0.0,Al-Gd,2,GdAl
0.0,Al-Gd,2,GdAl2
0.0,Al-Gd-Ni,3,GdAl2Ni
0.0,Al-Gd,2,GdAl3
2.8774,Al-B-Gd-O,4,GdAl3(BO3)4
0.0,Al-Cu-Gd,3,GdAl3Cu
0.0,Al-Gd-Ni,3,GdAl3Ni2
0.0,Al-Gd-Pd,3,GdAl3Pd2
0.0,Al-Au-Gd-Ge,4,GdAl4Ge2Au
0.0,Al-Gd-Ni,3,GdAl4Ni
0.0,Al-Au-Gd,3,GdAl7Au3
0.0,Al-Cu-Gd,3,GdAlCu
0.0,Al-Cu-Gd,3,GdAlCu4
0.0,Al-Ga-Gd,3,GdAlGa
0.0,Al-Gd-Ge,3,GdAlGe
0.0,Al-Gd-Ni,3,GdAlNi
0.0,Al-Gd-Ni,3,GdAlNi4
1.8885,Al-Gd-O,3,GdAlO3
3.2382,Al-Gd-O,3,GdAlO3
0.0,Al-Gd-Pd,3,GdAlPd
0.0,Al-Gd-Rh,3,GdAlRh
0.0,Al-Gd-Si,3,GdAlSi
0.0,Al-Gd-Zn,3,GdAlZn
0.0,Al-Gd-Ge-Zn,4,GdAlZnGe2
0.0,As-Gd,2,GdAs
0.0,As-Au-Gd,3,GdAs2Au
0.0,As-Gd-Pd,3,GdAs2Pd3
1.7600000000000002,As-Gd-O,3,GdAsO3
2.8049,As-Gd-O,3,GdAsO4
2.6976000000000004,As-Gd-O,3,GdAsO4
2.7524,As-Gd-O,3,GdAsO4
2.7853000000000003,As-Gd-O,3,GdAsO4
1.1584,As-Gd-O,3,GdAsO4
3.4222,As-Gd-O,3,GdAsO4
0.0,As-Gd-S,3,GdAsS
0.0,Au-Gd,2,GdAu
0.0,Au-Gd,2,GdAu2
0.0,B-Gd,2,GdB12
0.0,B-Gd,2,GdB2
3.1258,B-Gd-H-O,4,GdB2HO5
2.8111,B-Gd-H-O,4,GdB2HO5
0.0,B-Gd-Ir,3,GdB2Ir3
0.0,B-Gd-Os,3,GdB2Os
0.0,B-C-Gd-Rh,4,GdB2Rh2C
0.0,B-Gd-Rh,3,GdB2Rh3
0.0,B-Gd-Ru,3,GdB2Ru3
0.0,B-Gd,2,GdB4
0.0,B-Gd-Mo,3,GdB4Mo
0.0,B-Gd-Os,3,GdB4Os
0.0,B-Gd-Ru,3,GdB4Ru
0.0,B-Gd,2,GdB6
0.0,B-C-Gd,3,GdBC
2.1031,B-Gd-N,3,GdBN2
3.1001000000000003,B-Gd-O,3,GdBO3
0.1743000000000001,B-Gd-O,3,GdBO3
2.095,B-Gd-O,3,GdBO3
2.2691,B-Gd-O,3,GdBO3
0.0,B-Gd-Pd,3,GdBPd3
0.0,B-Gd-Rh,3,GdBRh3
0.0,Be-Gd,2,GdBe13
0.0,Be-Gd-O,3,GdBeO3
0.0,Bi-Gd,2,GdBi
1.0231999999999997,Bi-Br-Gd-O,4,GdBi2BrO4
0.8529,Bi-Cl-Gd-O,4,GdBi2ClO4
1.3080999999999996,Bi-Gd-I-O,4,GdBi2IO4
0.0,Bi-Gd,2,GdBi3
0.0,Bi-Gd-Pd,3,GdBiPd
0.0,Bi-Gd-Pt,3,GdBiPt
0.0,Br-Gd,2,GdBr
2.2701,Br-Gd,2,GdBr3
0.0811999999999999,Br-Gd-O,3,GdBrO
0.0,Br-Gd-O,3,GdBrO2
0.0,C-Gd,2,GdC2
0.0,Br-C-Gd,3,GdCBr
0.3854000000000001,C-Gd-O,3,GdCO4
0.0,Cd-Gd,2,GdCd
0.0,Cd-Gd,2,GdCd2
0.0,Cd-Gd,2,GdCd3
0.0,Ag-Cd-Gd,3,GdCdAg2
0.0,Au-Cd-Gd,3,GdCdAu2
0.0,Cd-Cu-Gd,3,GdCdCu
0.0,Cd-Gd-Hg,3,GdCdHg2
0.0,Cd-Gd-O,3,GdCdO3
0.0,Cd-Gd-Pd,3,GdCdPd
0.0,Cd-Gd-Pd,3,GdCdPd2
0.0,Cd-Gd-Pt,3,GdCdPt2
0.0,Cd-Gd-Rh,3,GdCdRh2
0.0,Cl-Gd,2,GdCl
2.0054,Cl-Gd,2,GdCl3
3.0355,Cl-Gd-O,3,GdClO
0.0,Cl-Gd-O,3,GdClO2
0.0,Co-Gd,2,GdCo2
0.0,B-C-Co-Gd,4,GdCo2B2C
0.0,B-Co-Gd-Ni,4,GdCo2Ni2B
0.0,B-Co-Gd,3,GdCo3B2
0.0,B-Co-Gd,3,GdCo4B
0.0,Co-Gd-Si,3,GdCo4Si
0.0,Co-Gd,2,GdCo5
0.0,Co-Gd-P,3,GdCo5P3
0.0,Co-Gd-Si,3,GdCo9Si4
0.0,B-Co-Gd,3,GdCoB4
0.0,C-Co-Gd,3,GdCoC
0.0,C-Co-Gd,3,GdCoC2