eg,chemsys,nelements,formula
0.0,B-Fe-Si,3,Fe5Si2B
0.0,Fe-Si,2,Fe5Si3
0.0,B-Fe-Si,3,Fe5SiB2
0.0,C-Fe-Si,3,Fe5SiC
0.0,Fe-P-Si,3,Fe5SiP
1.2554999999999998,Fe-O-P-Sn,4,Fe5Sn(PO4)6
0.0,Fe-O-Sn,3,Fe5SnO8
0.7252000000000001,Fe-O-P-Te,4,Fe5Te(PO4)6
0.0214999999999996,Cl-Fe-O-Te,4,Fe5Te6(ClO9)2
0.0,B-C-Fe,3,Fe6BC
0.0,B-C-Fe-Mo,4,Fe6BMo6C
0.0,B-Fe-P,3,Fe6BP
0.0,Cl-Fe-O,3,Fe6ClO12
0.0,Fe-Ge-N,3,Fe6Ge2N
0.0,Fe-Ge,2,Fe6Ge5
0.0,F-Fe-O,3,Fe6O11F
1.1375000000000002,F-Fe-O,3,Fe6O5F7
1.2309,F-Fe-O,3,Fe6O5F7
0.8985000000000001,F-Fe-O,3,Fe6O5F7
1.2268,F-Fe-O,3,Fe6O5F7
1.1932999999999998,F-Fe-O,3,Fe6O5F7
0.9536999999999998,F-Fe-O,3,Fe6O5F7
0.8984999999999999,F-Fe-O,3,Fe6O5F7
0.8514999999999999,F-Fe-O,3,Fe6O5F7
0.8958000000000002,F-Fe-O,3,Fe6O5F7
1.1926,F-Fe-O,3,Fe6O5F7
1.1989,F-Fe-O,3,Fe6O5F7
1.0872000000000002,F-Fe-O,3,Fe6O5F7
1.1025000000000005,F-Fe-O,3,Fe6O5F7
1.1959000000000002,F-Fe-O,3,Fe6O5F7
0.5981999999999998,F-Fe-O,3,Fe6O5F7
1.3922,F-Fe-O,3,Fe6O5F7
1.1952,F-Fe-O,3,Fe6O5F7
0.0,F-Fe-O,3,Fe6O7F5
0.0674999999999999,F-Fe-O,3,Fe6O7F5
0.0,F-Fe-O,3,Fe6O7F6
1.8698,F-Fe-O,3,Fe6OF11
0.8029000000000002,F-Fe-O,3,Fe6OF11
0.2912999999999999,F-Fe-O,3,Fe6OF11
1.8602,F-Fe-O,3,Fe6OF11
1.1898,F-Fe-O,3,Fe6OF11
1.6231000000000002,F-Fe-O,3,Fe6OF11
0.0,B-Fe-Si,3,Fe6SiB
0.0,C-Fe-W,3,Fe6W6C
0.0,Fe-N-W,3,Fe6WN4
1.5249,As-Fe-O,3,Fe7(AsO4)6
0.0929000000000002,Co-Fe-O,3,Fe7(CoO6)2
0.6642999999999999,Fe-Ni-O,3,Fe7(Ni3O8)2
0.2632999999999998,F-Fe-O,3,Fe7(OF3)3
1.845,F-Fe-O,3,Fe7(OF3)3
0.3760000000000001,F-Fe-O,3,Fe7(OF3)3
1.039,F-Fe-O,3,Fe7(OF7)2
0.0464000000000002,Fe-O-P,3,Fe7(PO4)6
1.5842,Fe-O-P,3,Fe7(PO5)4
0.3417999999999996,Fe-O-Si,3,Fe7(SiO3)8
0.3522000000000007,Fe-O-Si,3,Fe7(SiO6)2
0.8632999999999997,Fe-O-Si,3,Fe7(SiO6)2
0.0,C-Fe,2,Fe7C3
0.0,Co-Fe,2,Fe7Co
0.0,Fe-Ge,2,Fe7Ge4
0.0,Fe-Mo,2,Fe7Mo6
0.0,Fe-Ni-P,3,Fe7Ni5P4
0.2714,F-Fe-O,3,Fe7O3F13
1.2861,F-Fe-O,3,Fe7O3F13
0.0,F-Fe-O,3,Fe7O7F
0.0,Fe-O,2,Fe7O8
1.0723000000000005,Fe-O,2,Fe7O8
3.1224,Fe-H-O-P,4,Fe7P6(HO6)4
0.0,Fe-S,2,Fe7S8
1.5576,Fe-H-O-Si,4,Fe7Si3(H4O9)2
0.0004999999999997,Fe-O-Si,3,Fe7SiO10
0.0,Fe-O-Si,3,Fe7SiO10
0.0,Fe-W,2,Fe7W6
0.0,Fe-N,2,Fe8N
0.0,Fe-N,2,Fe8N3
0.9057,Fe-O,2,Fe8O9
1.4134000000000002,Fe-O,2,Fe8O9
0.0,Fe-O-Si,3,Fe8SiO12
0.0,B-Fe-Ir,3,Fe9B4Ir3
0.0,B-Fe-Rh,3,Fe9B4Rh3
0.0,Co-Fe,2,Fe9Co7
0.0,Cu-Fe-O,3,Fe9Cu3O16
1.2168000000000003,Fe-O,2,Fe9O10
0.0,Fe-O,2,Fe9O13
0.0,Fe-O-P,3,Fe9PO12
0.0,Fe-Se,2,Fe9Se8
0.0,Ag-Fe,2,FeAg
1.4844,Ag-Fe-Mo-O,4,FeAg(MoO4)2
1.6382999999999996,Ag-Fe-O-S,4,FeAg(SO4)2
0.8741000000000003,Ag-Fe-S-Sn,4,FeAg2Sn3S8
0.0,Ag-Fe-S-Sn,4,FeAg2SnS4
0.0,Ag-Fe,2,FeAg3
0.0,Ag-C-Fe-N,4,FeAg3(CN)6
0.0,Ag-F-Fe,3,FeAg3F6
1.7972,Ag-F-Fe,3,FeAg3F6
0.0,Ag-Fe-N,3,FeAgN
0.5564,Ag-Fe-O,3,FeAgO2
1.158,Ag-Fe-O,3,FeAgO2
1.1485,Ag-Fe-O,3,FeAgO2
0.0,Ag-Fe-O,3,FeAgO3
0.0,Ag-Fe-S,3,FeAgS2
0.0,Ag-Fe-N-S-Sb,5,FeAgSb(S2N3)2
0.0,Ag-Fe-Se,3,FeAgSe2
0.0,Ag-Fe-Te,3,FeAgTe2
0.0,As-Fe,2,FeAs
0.2829999999999995,As-Fe,2,FeAs2
0.0,As-Fe-O,3,FeAs2O7
0.0,As-Fe-O-Pb,4,FeAs2Pb2O9
0.0,As-Cl-Fe-O-Pb,5,FeAs2Pb4(ClO2)4
0.0,As-Fe-O,3,FeAsO3
1.6305,As-Fe-O,3,FeAsO4
1.5579999999999998,As-Fe-O,3,FeAsO4
0.0,As-Fe-Rh,3,FeAsRh
0.7373000000000003,As-Fe-S,3,FeAsS
0.4485999999999999,As-Fe-Se,3,FeAsSe
0.0,Au-Fe,2,FeAu
0.0,Au-Fe,2,FeAu3
0.4779,Au-Fe-O,3,FeAuO2
0.0,B-Fe,2,FeB
0.5153999999999996,B-Fe,2,FeB2
0.0,B-Fe,2,FeB2
4.623200000000001,B-C-F-Fe-O,5,FeB2C6(O3F4)2
2.3365,B-Fe-H-O-P,5,FeB2P2(HO4)3
0.0,B-Fe,2,FeB4
2.6798,B-Fe-O,3,FeB4O7
1.5175999999999998,B-Fe-O,3,FeBO3
0.6726999999999999,B-Fe-O,3,FeBO3
1.4815999999999998,B-Fe-O,3,FeBO3
0.2790999999999999,B-Fe-O,3,FeBO3
2.0864000000000003,B-Fe-O-Pb,4,FeBPbO4
0.0,B-Fe-W,3,FeBW
0.0,Bi-Fe-O-P,4,FeBi2PO8
0.3537999999999996,Bi-Fe-S,3,FeBi4S7
0.0,As-Bi-Fe-O,4,FeBiAsO
1.4197999999999995,Bi-Fe-O,3,FeBiO3
0.1276000000000001,Bi-Fe-O,3,FeBiO3
0.0,Bi-Fe-O,3,FeBiO3
1.4146,Bi-Fe-O,3,FeBiO3
1.6433,Bi-Fe-O,3,FeBiO3
1.7783000000000009,Bi-Fe-O,3,FeBiO3
1.6328999999999994,Bi-Fe-O,3,FeBiO3
1.6259,Bi-Fe-O,3,FeBiO3
1.5419999999999998,Bi-Fe-O,3,FeBiO3
1.1601,Bi-Fe-O,3,FeBiO3
1.7818999999999998,Bi-Fe-O,3,FeBiO3
0.0,Bi-Fe-O-P-Pb,5,FeBiPPbO7
0.2637,Bi-Br-Fe-S,4,FeBiS2Br
0.4554999999999999,Br-Fe-N-O,4,FeBr(NO)3
0.0,Br-Fe,2,FeBr2
0.0,Br-Fe,2,FeBr3
0.0,C-Fe-N,3,FeC2N3
0.0,C-Fe-N-O,4,FeC3N3O2
0.0,C-Fe-N,3,FeCN2
0.0,C-Fe-O,3,FeCO3
1.4102,C-Fe-O,3,FeCO3
0.8654,C-Fe-O-S,4,FeCSO7
0.0,Cl-Fe,2,FeCl
0.0356999999999998,Cl-Fe,2,FeCl2
0.0,Cl-Fe,2,FeCl2
0.0,Cl-Fe,2,FeCl3
0.6636,Cl-Fe,2,FeCl3
0.2505,Cl-Fe,2,FeCl4
1.9133,Cl-Fe-O,3,FeClO
0.0,Co-Fe,2,FeCo
0.5354999999999999,Bi-Co-Fe-O,4,FeCo(BiO3)2
0.0,Co-Fe-Ni-S,4,FeCo(NiS2)4
0.1210999999999999,Co-Fe-O-P,4,FeCo(PO4)2
0.2771000000000001,Co-Fe-O-P,4,FeCo(PO4)2
0.0,Co-Fe-Rh-S,4,FeCo(RhS2)4
0.0,Co-Fe-Ni-S,4,FeCo16NiS16
0.0,C-Co-Fe-N,4,FeCo2(CN)6
0.0,B-Co-Fe,3,FeCo2B
0.0,B-Co-Fe-O,4,FeCo2BO5
0.0,Co-Fe-Ge,3,FeCo2Ge
0.0,Co-Fe-Si,3,FeCo2Si
0.0,Co-Fe,2,FeCo3
0.5962999999999998,Co-Fe-O-P,4,FeCo3(PO4)4
0.0,Co-Fe-O,3,FeCo3O8
0.0,Co-Fe-S,3,FeCo3S8
0.0,Co-Fe-N,3,FeCo5N4
0.0,Co-Fe-O,3,FeCo5O12
0.0,Co-Fe,2,FeCo9
0.3016000000000001,Co-Fe-O,3,FeCo9O20
0.0,As-Co-Fe,3,FeCoAs
0.0,As-Co-Fe,3,FeCoAs4
0.0,B-Co-Fe,3,FeCoB
0.0,B-Co-Fe,3,FeCoB2
0.2672000000000003,B-Co-Fe-O,4,FeCoBO4
0.0,As-Bi-Co-Fe-O,5,FeCoBi2(AsO6)2
0.0,Co-Fe-Ge,3,FeCoGe
0.0,C-Co-Fe-H-N,5,FeCoH18(CN2)6
0.0,Co-Fe-O,3,FeCoO2
0.0,Co-Fe-O,3,FeCoO4
0.0,Co-Fe-P,3,FeCoP
2.4339,Co-F-Fe-O-P,5,FeCoPO4F
0.1222000000000003,Co-Fe-O-P,4,FeCoPO5
0.0,Co-Fe-Pt,3,FeCoPt2
0.0,Co-Fe-S,3,FeCoS2
0.0,Co-Fe-S,3,FeCoS4
0.0,Co-Fe-Sb,3,FeCoSb4
0.0,Co-Fe-Se,3,FeCoSe2
0.0,Co-Fe-Si,3,FeCoSi
0.0,Co-Fe-Si,3,FeCoSi2
0.0,Co-Fe-Sn,3,FeCoSn
0.0,Co-Fe-Sn,3,FeCoSn2
0.0,Co-Fe-Sn,3,FeCoSn4
0.0,Co-Fe-Te,3,FeCoTe2
0.0,Cu-Fe,2,FeCu
0.0,C-Cu-Fe-N,4,FeCu(C3N4)2
0.0,Cu-Fe-O-P,4,FeCu(PO4)2
0.0,Cu-Fe-Rh-S,4,FeCu(RhS2)4
0.0,Cu-Fe-Rh-Se,4,FeCu(RhSe2)4
0.0,C-Cu-Fe-N,4,FeCu2(CN)6
0.0,Cu-Fe-O-S,4,FeCu2(SO4)2
0.0,B-Cu-Fe-O,4,FeCu2BO5
0.0508999999999999,B-Cu-Fe-O,4,FeCu2BO5
0.0,Cu-Fe-Ge-S,4,FeCu2GeS4
0.0,Cu-Fe-Ge-Se,4,FeCu2GeSe4
0.0,Cu-F-Fe-H-O,5,FeCu2H21(O5F4)2
0.3570000000000002,Cu-Fe-O-Sb,4,FeCu2SbO6
0.0213,Cu-Fe-S-Si,4,FeCu2SiS4
0.0,Cu-Fe-Se-Si,4,FeCu2SiSe4
0.0,Cu-Fe-Sn,3,FeCu2Sn
0.6529999999999996,Cu-Fe-S-Sn,4,FeCu2Sn3S8
0.0,Cu-Fe-S-Sn,4,FeCu2SnS4
0.0,Cu-Fe-Se-Sn,4,FeCu2SnSe4
0.0,Cu-Fe,2,FeCu3
0.0,Cu-Fe-O-P,4,FeCu3(PO4)4
0.0,Cu-Fe-S,3,FeCu3S4
0.0,Cu-Fe-S,3,FeCu3S8
0.0,Cu-Fe,2,FeCu4
0.0,Cu-Fe-S,3,FeCu5S4
0.0,Cu-Fe-S-Sn,4,FeCu6(SnS4)2
0.0,Cu-Fe-Ge-S,4,FeCu6GeS8
0.0,As-Cu-Fe-O-Pb,5,FeCuAs2PbO10
0.0,As-Bi-Cu-Fe-O,5,FeCuBi2(AsO6)2
0.0,C-Cu-Fe-N-O,5,FeCuC5N6O
0.0,Cu-Fe-Ni,3,FeCuNi
0.0,Cu-Fe-O,3,FeCuO2
0.8043999999999998,Cu-Fe-O,3,FeCuO2
0.0,Cu-Fe-O-P,4,FeCuPO5
0.0,Cu-Fe-Pt,3,FeCuPt2
0.0,Cu-Fe-S,3,FeCuS2
0.0,Cu-Fe-Se,3,FeCuSe2
0.0,Cu-Fe-S-Se,4,FeCuSeS
0.0,Cu-Fe-Te,3,FeCuTe2
1.6921,F-Fe,2,FeF2
3.0128,F-Fe,2,FeF3
3.0517,F-Fe,2,FeF3
3.0028,F-Fe,2,FeF3
3.1061,F-Fe,2,FeF3
2.8517,F-Fe,2,FeF3
3.1326,F-Fe,2,FeF3
1.6505,F-Fe,2,FeF4
0.5263,F-Fe,2,FeF6
0.0906000000000002,Fe-Ge,2,FeGe
0.0,Fe-Ge,2,FeGe
0.0,Fe-Ge,2,FeGe2
0.0,Fe-Ge,2,FeGe3
2.9159999999999995,Fe-Ge-H-O-Pb,5,FeGe3H4PbO10
0.0,Fe-Ge-N,3,FeGeN2
1.9617,Fe-Ge-O,3,FeGeO3
0.0,Fe-Ge-Ru,3,FeGeRu2
0.0356999999999994,Fe-Ge-S,3,FeGeS3
0.0,Fe-H,2,FeH
4.4430000000000005,Fe-H-N-O-S,5,FeH10S2(NO2)4
1.197,C-Fe-H-N-O,5,FeH12C2(N5O3)2
4.3131,C-F-Fe-H-O-S,6,FeH12C2S2(O2F)6
0.5689,C-Fe-H-N-S,5,FeH12C4(S2N5)2
1.8802,C-Fe-H-O-S,5,FeH12C4(S2O3)2
2.5357,C-Fe-H-N-O-S,6,FeH12C8S2(NO)2
3.5115,F-Fe-H-N-O,5,FeH12N3(OF2)3
3.8233,C-F-Fe-H-N-O,6,FeH14C4NOF4
0.0,C-Fe-H-N,4,FeH2(CN2)2
0.0,C-Fe-H-O,4,FeH2(CO2)2
4.1759,C-Fe-H-I-O,5,FeH24C6(IO3)2
3.1761,Fe-H-O-S,4,FeH2SO5
0.0,Fe-H,2,FeH3
0.0,Fe-H,2,FeH4
4.3636,C-Fe-H-N,4,FeH4(CN)6
3.8519,Cl-Fe-H-O,4,FeH4(ClO)2
0.0724,Fe-H-O-S,4,FeH4(SO5)2
0.0442,Br-Fe-H-N,4,FeH4Br3N
2.7606,C-Fe-H-N-O,5,FeH6C2(NO2)2
1.4882,C-Fe-H-O,4,FeH7(CO2)4
3.8417,C-Fe-H-N-O,5,FeH7C3NO6
1.7042,Br-Fe-H-O,4,FeH8(BrO2)2
3.8757,Cl-Fe-H-O,4,FeH8(ClO2)2
0.2364999999999999,C-Fe-H-N-S,5,FeH8C4(S2N3)2
2.221,Fe-H-N-O-S,5,FeH8S2NO10
0.9712,C-Fe-H-N-O,5,FeH9C5NO6
1.5805999999999998,C-Fe-H-O,4,FeHC2O3
0.9061,Fe-H-O,3,FeHO2
2.0028,Fe-H-O,3,FeHO2
1.4013000000000002,Fe-H-O,3,FeHO2
1.67,Fe-H-O,3,FeHO2
2.0566000000000004,Fe-H-O,3,FeHO2
1.043,Fe-H-O,3,FeHO2
0.8356999999999999,Fe-H-O,3,FeHO2
1.8729,Fe-H-O,3,FeHO2
0.0,Fe-H-O,3,FeHO2
1.9986,Fe-H-O,3,FeHO2
1.759,Fe-H-O,3,FeHO2
1.7285,Fe-H-O,3,FeHO2
1.6806,Fe-H-O,3,FeHO2
2.0151,Fe-H-O,3,FeHO2
1.4417,Fe-H-O,3,FeHO2
1.9086,Fe-H-O,3,FeHO2
1.4523,Fe-H-O,3,FeHO2
1.7408,Fe-H-O,3,FeHO2
0.0,F-Fe-Hg-O,4,FeHg2O3F5
0.0,Fe-Hg,2,FeHg3
0.0,C-Fe-Hg-N-S,5,FeHgC4(SN)4
0.0,F-Fe-Hg-O,4,FeHgO2F5
0.0,Fe-I,2,FeI2
0.0,Fe-Ir,2,FeIr
0.0,Fe-Ir,2,FeIr3
0.0,Fe-Mo,2,FeMo2
0.0,As-Fe-Mo,3,FeMo3As4
0.0,Fe-Mo-N-Pd,4,FeMo3PdN
0.0,Fe-Mo-N-Pt,4,FeMo3PtN
0.0,Fe-Mo-S,3,FeMo3S4
0.0,Fe-Mo-N-Pd,4,FeMo6Pd3N2
0.0,Fe-Mo-N-Rh,4,FeMo6Rh3N2
0.0,As-Fe-Mo,3,FeMoAs2
1.8735,Cl-Fe-Mo-O,4,FeMoClO4
1.5746,Cl-Fe-Mo-O,4,FeMoClO4
2.1992000000000003,Cl-Fe-Mo-O,4,FeMoClO4
0.0,Fe-Mo-O,3,FeMoO
2.037,Fe-Mo-O,3,FeMoO4
0.2814999999999998,Fe-Mo-O,3,FeMoO4
0.0,Fe-Mo-P,3,FeMoP
0.0,Fe-N,2,FeN
0.0,Fe-N,2,FeN2
0.0,F-Fe-N,3,FeN2F5
0.3791,Cl-Fe-N-O,4,FeN3ClO3
0.0,Cl-Fe-N,3,FeNCl3
0.0,Fe-Ni,2,FeNi
0.0,Fe-Ni-O-P,4,FeNi(PO4)2
0.0,Fe-Ni-P-S,4,FeNi(PS3)2
0.0,Fe-Ni,2,FeNi2
0.6146000000000003,C-Fe-N-Ni,4,FeNi2(CN)6
1.6665,B-Fe-Ni-O,4,FeNi2BO5
0.0,Fe-Ge-Ni,3,FeNi2Ge
0.0,Fe-Ni,2,FeNi3
0.0,Fe-Mo-N-Ni,4,FeNi3(Mo3N)2
0.0,Fe-Ni-O-P,4,FeNi3(PO4)4
0.0,Fe-Ni-O-P-Sn,5,FeNi3Sn2(PO4)6
0.0,Fe-N-Ni,3,FeNi5N4
0.7212,Ag-F-Fe-Ni,4,FeNiAg2F7
0.0,As-Fe-Ni,3,FeNiAs
0.0,As-Fe-Ni,3,FeNiAs4
0.0,B-Fe-Ni,3,FeNiB
0.0,Fe-Ge-Ni,3,FeNiGe
0.0,Fe-Mo-Ni,3,FeNiMo
0.0,Fe-Mo-N-Ni,4,FeNiMo3N
0.0,Fe-N-Ni,3,FeNiN
0.0,Fe-Ni-O,3,FeNiO3
0.3841999999999999,Fe-Ni-O,3,FeNiO3
0.0,Fe-Ni-P,3,FeNiP
0.0,Fe-Ni-P,3,FeNiP6
0.0,Fe-Ni-O-P,4,FeNiPO5
0.0,Fe-Ni-Pt,3,FeNiPt2
0.0,Fe-Ni-Pt,3,FeNiPt6
0.0,Fe-Ni-S,3,FeNiS2
0.0,Fe-Ni-S,3,FeNiS4
0.0,Fe-Ni-Sb,3,FeNiSb4
0.1284999999999998,Fe-Ni-Sb,3,FeNiSb6
0.0,Fe-Ni-Se,3,FeNiSe4
0.0,Fe-Ni-Sn,3,FeNiSn
0.0,Fe-Ni-Te,3,FeNiTe4
0.0,Fe-O,2,FeO
2.0878,Fe-O,2,FeO
1.8861,Fe-O,2,FeO
1.8157000000000003,Fe-O,2,FeO
1.7989000000000002,Fe-O,2,FeO
1.0884,Fe-O,2,FeO
0.9475000000000008,Fe-O,2,FeO
1.1609999999999996,Fe-O,2,FeO
0.0,Fe-O,2,FeO2
0.0,F-Fe-O,3,FeO2F
0.3050999999999999,Fe-O,2,FeO3
1.2815,F-Fe-O,3,FeOF
0.0,F-Fe-O,3,FeOF
1.4842,F-Fe-O,3,FeOF
1.0415,F-Fe-O,3,FeOF
1.382,F-Fe-O,3,FeOF
0.3906,F-Fe-O,3,FeOF
1.4952,F-Fe-O,3,FeOF
0.5958999999999999,F-Fe-O,3,FeOF
1.7361,F-Fe-O,3,FeOF
1.4638999999999998,F-Fe-O,3,FeOF
0.9123,F-Fe-O,3,FeOF
1.1938,F-Fe-O,3,FeOF
0.2999,F-Fe-O,3,FeOF
1.4934999999999998,F-Fe-O,3,FeOF
0.7429999999999999,F-Fe-O,3,FeOF
0.5985999999999998,F-Fe-O,3,FeOF
0.2185,F-Fe-O,3,FeOF
1.9005,F-Fe-O,3,FeOF
0.0050999999999999,F-Fe-O,3,FeOF
1.4661,F-Fe-O,3,FeOF
0.6481000000000003,F-Fe-O,3,FeOF
1.1254000000000002,F-Fe-O,3,FeOF
0.5070999999999999,F-Fe-O,3,FeOF
1.4903,F-Fe-O,3,FeOF
0.8996999999999997,F-Fe-O,3,FeOF
0.1733,F-Fe-O,3,FeOF
1.6065,F-Fe-O,3,FeOF
1.4960000000000002,F-Fe-O,3,FeOF
0.1389999999999998,F-Fe-O,3,FeOF
1.6772,F-Fe-O,3,FeOF
0.8944000000000001,F-Fe-O,3,FeOF
0.2418999999999997,F-Fe-O,3,FeOF
0.7532999999999999,F-Fe-O,3,FeOF
0.2339000000000002,F-Fe-O,3,FeOF
0.2722000000000002,F-Fe-O,3,FeOF
0.3353999999999999,F-Fe-O,3,FeOF
1.2588,F-Fe-O,3,FeOF
0.6595,F-Fe-O,3,FeOF
0.3843999999999998,F-Fe-O,3,FeOF
0.0592999999999999,F-Fe-O,3,FeOF
0.4687,F-Fe-O,3,FeOF
0.3078000000000003,F-Fe-O,3,FeOF
0.7301000000000002,F-Fe-O,3,FeOF
0.4964999999999997,F-Fe-O,3,FeOF
1.4859,F-Fe-O,3,FeOF
0.2128999999999998,F-Fe-O,3,FeOF
1.6225,F-Fe-O,3,FeOF
0.6735000000000002,F-Fe-O,3,FeOF
1.3562999999999998,F-Fe-O,3,FeOF
0.5248999999999997,F-Fe-O,3,FeOF
1.6906,F-Fe-O,3,FeOF
1.4923000000000002,F-Fe-O,3,FeOF
0.5992999999999999,F-Fe-O,3,FeOF
0.5985,F-Fe-O,3,FeOF
1.1955,F-Fe-O,3,FeOF
0.2966999999999999,F-Fe-O,3,FeOF
1.2973,F-Fe-O,3,FeOF
0.4977,F-Fe-O,3,FeOF
0.0,Fe-P,2,FeP
2.4507000000000003,Fe-H-O-P,4,FeP(H2O3)2
1.5012,Fe-H-O-P,4,FeP(HO2)2
0.4327000000000005,Fe-P,2,FeP2
4.3922,Fe-H-O-P,4,FeP2(H4O5)2
4.1848,Fe-H-O-P,4,FeP2(H4O5)2
0.0,Fe-O-P-Pb,4,FeP2(PbO5)2
2.1761,Fe-H-O-P,4,FeP2HO7
0.0533,Fe-O-P,3,FeP2O7
0.0,Fe-O-P,3,FeP2O7
0.0628,Fe-O-P,3,FeP2O7
0.0,Fe-P-W,3,FeP2W
0.0,Fe-O-P-W,4,FeP2WO8
2.4117,Fe-H-O-P,4,FeP3(H2O3)3
2.8556,Fe-H-O-P,4,FeP3(HO)6
2.4077,Fe-H-N-O-P,5,FeP3H5NO10
1.5453,Fe-O-P,3,FeP3O11
0.7014000000000014,Fe-P,2,FeP4
0.8292999999999999,Fe-P,2,FeP4
0.8049,Fe-P,2,FeP4
2.0728,Fe-O-P-W,4,FeP6(WO8)3
1.2953,Br-C-Fe-H-P,5,FePH12(CBr)4
2.0601000000000003,Fe-H-O-P,4,FePH2O5
2.6603,C-Fe-H-O-P,5,FePH3CO7
2.2277,Fe-H-N-O-P,5,FePH4(NO2)2
3.8726,C-Fe-H-O-P,5,FePH5CO4
3.0424,C-Fe-H-O-P,5,FePH5CO4
3.7068,F-Fe-H-N-O-P,6,FePH5NO4F
2.6063,F-Fe-H-N-O-P,6,FePH5NO4F
3.6401,Fe-H-N-O-P,5,FePH6NO5
3.5059,Fe-H-N-O-P,5,FePH6NO5
3.8143,Fe-H-N-O-P,5,FePH6NO5
3.5902000000000003,Fe-H-N-O-P,5,FePH6NO5
3.7528,Fe-H-N-O-P,5,FePH6NO5
3.3169000000000004,Fe-H-N-O-P,5,FePH6NO5
0.0,Fe-H-O-P,4,FePHO5
1.6047,Fe-O-P,3,FePO4
2.6991,Fe-O-P,3,FePO4
1.3138000000000003,Fe-O-P,3,FePO4
2.7489,Fe-O-P,3,FePO4
2.4147,Fe-O-P,3,FePO4
0.6198000000000001,Fe-O-P,3,FePO4
2.5353000000000003,Fe-O-P,3,FePO4
0.9954999999999998,Fe-O-P,3,FePO4
1.2423000000000002,Fe-O-P,3,FePO4
2.7961,Fe-O-P,3,FePO4
2.4257,Fe-O-P,3,FePO4
0.3671999999999999,Fe-O-P,3,FePO4
1.7056,Fe-O-P,3,FePO4
2.4307,Fe-O-P,3,FePO4
2.1857,Fe-O-P,3,FePO4
2.1932,Fe-O-P,3,FePO4
2.5497,Fe-O-P,3,FePO4
2.4109,Fe-O-P,3,FePO4
2.7823,Fe-O-P,3,FePO4
1.1156,Fe-O-P,3,FePO4
1.6668000000000005,Fe-O-P,3,FePO4
0.0,F-Fe-O-P,4,FePO4F
0.0,Fe-O-P,3,FePO6
0.0,Fe-P-Rh,3,FePRh
0.5054000000000007,Fe-P-S,3,FePS
0.4283999999999999,Fe-P-S,3,FePS3
0.0,Fe-P-S,3,FePS3
0.1894,Fe-P-Se,3,FePSe
0.0015,Fe-P-Se,3,FePSe3
3.4058,C-Fe-N-Pb,4,FePb2(CN)6
0.0,Cl-Fe-O-Pb,4,FePb2Cl3O5
2.3575,Fe-O-Pb-W,4,FePb2WO6
0.0,Fe-O-Pb,3,FePbO3
0.0,Fe-Pb-W,3,FePbW2
0.0,Fe-Pd,2,FePd
0.0,Fe-Pd,2,FePd2
0.0,Fe-Pd,2,FePd3
0.0,Fe-Pt,2,FePt
2.2287,C-Fe-N-Pt,4,FePt(CN)6
0.0,Fe-Pt,2,FePt3
0.0,Fe-O-Pt,3,FePtO2
0.0,Fe-Re,2,FeRe
0.0,Fe-O-Pb-Re,4,FeRe(PbO3)2
2.6838,Fe-H-O-Re,4,FeRe2(H2O3)4
0.0,Fe-Mo-Re-S,4,FeRe2(MoS4)2
0.0,Fe-Re,2,FeRe3
0.0,B-Fe-Re,3,FeReB
0.0,Fe-Rh,2,FeRh
0.0,Fe-Rh,2,FeRh3
0.0,Fe-O-Rh,3,FeRhO3
0.0,Fe-Ru,2,FeRu
0.0,Fe-S,2,FeS
0.0,Fe-S,2,FeS2
0.8770000000000007,Fe-S,2,FeS2
0.4571999999999994,Fe-S,2,FeS2
0.0,Fe-N-O-S,4,FeS2NO8
0.0,Fe-O-S,3,FeS2O9
2.7701,Fe-O-S,3,FeSO3
2.2869,Fe-O-S,3,FeSO4
4.2084,Fe-O-S,3,FeSO4
2.0446,F-Fe-O-S,4,FeSO4F
2.0927,F-Fe-O-S,4,FeSO4F
0.2321,Fe-O-S,3,FeSO5
0.0,Fe-O-S,3,FeSO5
0.0,Fe-O-S,3,FeSO7
0.0,Fe-Sb,2,FeSb
0.0,Cl-Fe-O-Sb,4,FeSb(ClO)8
0.0,Fe-Sb,2,FeSb2
0.0,Fe-Sb,2,FeSb3
1.0490999999999997,Fe-O-P-Sb,4,FeSb3(PO4)4
1.5802,Fe-O-P-Sb,4,FeSb3(PO4)6
0.2488999999999999,Fe-Pd-Sb,3,FeSb6Pd
0.0175999999999998,As-Fe-Sb,3,FeSbAs
1.6381,Fe-O-Sb,3,FeSbO4
1.2169,Fe-O-Sb,3,FeSbO4
1.0037000000000005,Fe-O-Sb,3,FeSbO4
0.0,Fe-O-Sb,3,FeSbO4
0.0,Fe-Pt-Sb,3,FeSbPt
0.0,Fe-Rh-Sb,3,FeSbRh2
0.5470000000000006,Fe-S-Sb,3,FeSbS
0.6219999999999999,Fe-Sb-Se,3,FeSbSe
0.2980999999999998,Fe-Sb-Te,3,FeSbTe
0.0,Fe-Sb-Te,3,FeSbTe
0.0,Fe-Se,2,FeSe
0.0162999999999993,Fe-Se,2,FeSe2
0.3741000000000003,Fe-Se,2,FeSe2
0.0,Fe-N-O-Se,4,FeSe2NO8
0.0,Fe-N-Se,3,FeSeN
1.4261,F-Fe-O-Se,4,FeSeO3F
1.6350999999999998,Fe-O-Se,3,FeSeO4
0.312,Fe-O-Se,3,FeSeO5
0.2813,Fe-O-Se,3,FeSeO5
0.180200000000001,Fe-Si,2,FeSi
0.0,Ag-Fe-S-Si,4,FeSi(AgS2)2
0.6966000000000001,Fe-Si,2,FeSi2
0.0,Fe-Si,2,FeSi2
0.1190999999999995,Fe-N-Si,3,FeSi2N3
0.8570000000000002,Fe-N-Si,3,FeSi7N10
0.4379999999999997,Fe-Ge-Si,3,FeSiGe
0.3052000000000001,Fe-Ge-Si,3,FeSiGe
0.0,Fe-Mo-Si,3,FeSiMo
0.0,Fe-N-Si,3,FeSiN2
0.0,Fe-Ni-Si,3,FeSiNi
0.7031000000000001,Fe-O-Si,3,FeSiO3
1.4521999999999995,Fe-O-Si,3,FeSiO3
2.9807,Fe-O-Si,3,FeSiO3
0.0,Fe-O-Si,3,FeSiO4
0.6056999999999999,Fe-O-Si,3,FeSiO4
0.6887,Fe-O-Si,3,FeSiO4
0.0,Fe-Ru-Si,3,FeSiRu2
0.0,Fe-Si-Tc,3,FeSiTc2
0.0,Fe-Si-W,3,FeSiW
0.0628999999999999,Fe-Si-W,3,FeSiW
0.0,Fe-Sn,2,FeSn
1.6008,Fe-O-P-Sn,4,FeSn(PO4)2
0.0,Fe-Sn,2,FeSn2
3.333,C-Fe-N-Sn,4,FeSn2(CN)6
0.0,Fe-Sn,2,FeSn3
0.0,F-Fe-Sn,3,FeSnF6
0.0,Fe-N-Sn,3,FeSnN
0.0,Fe-N-Sn,3,FeSnN2
0.8620000000000001,Fe-O-Sn,3,FeSnO3
1.0275,Fe-O-Sn,3,FeSnO3
0.0,Fe-O-Sn,3,FeSnO3
0.0,Fe-O-Sn,3,FeSnO6
0.6926999999999994,Fe-O-Sn,3,FeSnO6
0.0,Fe-Pt-Sn,3,FeSnPt
0.0,Fe-Rh-Sn,3,FeSnRh2
0.0,Fe-Ru-Sn,3,FeSnRu2
0.0,Cl-Fe-Tc,3,FeTc2Cl
0.0,Fe-Ge-Tc,3,FeTc2Ge
0.0,Fe-Te,2,FeTe
0.0,Fe-Te,2,FeTe2
0.077399999999999,Fe-Te,2,FeTe2
0.6818999999999997,As-Fe-Te,3,FeTeAs
1.4996,F-Fe-O-Te,4,FeTeO3F
1.9249,Cl-Fe-O-W,4,FeWClO4
0.0,Fe-N-W,3,FeWN2
2.401,Fe-O-W,3,FeWO4
0.0,Ga,1,Ga
0.0,B-Ga-O,3,Ga(BO)6
0.0,Cu-Ga-N,3,Ga(CuN)3
1.1462,Fe-Ga-O,3,Ga(FeO2)2
3.9221,Ga-H-O,3,Ga(HO)3
3.3187,Ga-I-O,3,Ga(IO3)3
0.0,Ga-Mo-S,3,Ga(MoS2)4
0.1197999999999996,Ga-Mo-S,3,Ga(MoS2)4
0.0,Ga-Mo-Se,3,Ga(MoSe2)4
0.2052000000000005,Ga-Mo-Se,3,Ga(MoSe2)4
0.0,F-Ga-N,3,Ga(NF2)3
0.1389999999999998,Ga-N-Pb,3,Ga(PbN)3
0.0,Ga-Ni-Si,3,Ga(SiNi3)2
3.0318,Ga-Ge-O-Pb,4,Ga10GePb3O20
1.5736999999999997,Ga-N-O,3,Ga11NO15
1.89,C-Ga-N,3,Ga2(CN2)3
0.0,C-Ga-N,3,Ga2(CN2)3
0.0,B-Co-Ga,3,Ga2(Co7B2)3
0.0,B-Ga-Ni,3,Ga2(Ni7B2)3
4.33,Ga-O-S,3,Ga2(SO4)3
0.0,Ga-Ni,2,Ga21Ni5
0.4080000000000001,Ag-Ga-S-Se,4,Ga2Ag2Se3S
0.7837000000000001,Ag-Ga-S-Se,4,Ga2Ag2SeS3
0.2366000000000001,Ag-Ga-Se-Te,4,Ga2Ag2TeSe3
0.7805,As-Ga-P,3,Ga2AsP
0.0,As-Ga-Rh,3,Ga2AsRh5
0.0,Au-Ga,2,Ga2Au
0.0,Au-Ga,2,Ga2Au7
0.0,B-Ga-O,3,Ga2B3O8
0.0,B-Ga-Sb,3,Ga2BSb
0.0,As-Bi-Ga,3,Ga2BiAs
0.0,Bi-Ga-N,3,Ga2BiN
0.0,Co-Ga-O-S,4,Ga2Co(SO)2
0.0,C-Co-Ga,3,Ga2Co6C
0.0,Co-Ga-Ir,3,Ga2CoIr
0.0,Co-Ga-N,3,Ga2CoN3
0.0,Co-Ga-Ni,3,Ga2CoNi
0.5134999999999996,Co-Ga-O,3,Ga2CoO4
1.7927,Co-Ga-O,3,Ga2CoO4
0.0,Co-Ga-Ru,3,Ga2CoRu
0.3237999999999998,Co-Ga-S,3,Ga2CoS4
0.0,Cu-Ga,2,Ga2Cu
0.0,Cu-Ga-O-S,4,Ga2Cu(SO)2
0.0947999999999997,Ag-Cu-Ga-Se-Te,5,Ga2CuAg(TeSe)2
0.7176999999999998,Ag-Cu-Ga-S,4,Ga2CuAgS4
0.0968,Ag-Cu-Ga-Se,4,Ga2CuAgSe4
0.1469,Ag-Cu-Ga-Te,4,Ga2CuAgTe4
0.0,Cu-Ga-O,3,Ga2CuO4
2.8240000000000003,Fe-Ga-O-P,4,Ga2Fe(PO4)3
1.741,Bi-Fe-Ga-O,4,Ga2Fe2Bi2O9
0.0,Fe-Ga-S,3,Ga2Fe2S5
0.0,C-Fe-Ga,3,Ga2Fe6C
0.0,Co-Fe-Ga,3,Ga2FeCo
0.0,Fe-Ga-N,3,Ga2FeN3
0.0,Fe-Ga-Ni,3,Ga2FeNi9
0.5741000000000005,Fe-Ga-O,3,Ga2FeO4
0.0,Fe-Ga-S,3,Ga2FeS4
0.0,Fe-Ga-Se,3,Ga2FeSe4
0.0295,Ga-Ge-N,3,Ga2Ge3N4
2.1691000000000003,Ga-Ge-O-Pb,4,Ga2Ge4Pb3O14
0.1601000000000001,Ga-Hg-Se,3,Ga2Hg5Se8
0.5638000000000003,Ga-Hg-O,3,Ga2HgO4
1.3150000000000002,Ga-Hg-O,3,Ga2HgO4
0.1037999999999996,Ga-Hg-O,3,Ga2HgO4
1.5714,Ga-Hg-S,3,Ga2HgS4
0.0,Ga-Hg-Se,3,Ga2HgSe4
0.9168,Ga-Hg-Se,3,Ga2HgSe4
0.3457000000000003,Ga-Hg-Te,3,Ga2HgTe4
0.6610999999999998,Ga-Hg-Te,3,Ga2HgTe4
0.0,Ga-Ir,2,Ga2Ir
0.0,Ga-Ir-Rh,3,Ga2IrRh
0.0,Ga-Ir-Ru,3,Ga2IrRu
0.0,Ga-Ni-Te,3,Ga2Ni5Te4
0.0,Ga-Ge-Ni,3,Ga2Ni7Ge2
0.0,Ga-N-Ni,3,Ga2NiN3
0.0,Ga-Ni-O,3,Ga2NiO4
1.5034,Ga-Ni-O,3,Ga2NiO4
0.0,Ga-Ni-Ru,3,Ga2NiRu
0.0,Ga-Ni-S,3,Ga2NiS4
0.4707,Ga-O,2,Ga2O3
2.4025,Ga-O,2,Ga2O3
1.2044,Ga-O,2,Ga2O3
0.0058000000000002,Ga-O,2,Ga2O3
2.0078,Ga-O,2,Ga2O3
0.6654999999999998,Ga-Os,2,Ga2Os
5.1724000000000006,Ga-H-O-P,4,Ga2P3(HO3)3
3.4457000000000004,Ga-O-Pb,3,Ga2PbO4
3.4243,Ga-O-Pb,3,Ga2PbO4
1.7254999999999998,Ga-Pb-Se,3,Ga2PbSe4
0.0,Ga-Pd,2,Ga2Pd5
1.5761999999999998,Br-Ga-Pd,3,Ga2PdBr8
1.4176,Ga-I-Pd,3,Ga2PdI8
0.0,Ga-Pt,2,Ga2Pt
0.1268000000000002,Ga-Ru,2,Ga2Ru
0.0,Ga-Ru,2,Ga2Ru
0.0,Ga-Pt-Ru,3,Ga2RuPt
0.0,Ga-Rh-Ru,3,Ga2RuRh
1.3536,Ga-S,2,Ga2S3
0.0,Ga-S,2,Ga2S3
1.8097000000000003,Ga-S,2,Ga2S3
1.7106,Ga-S,2,Ga2S3
0.5122999999999998,Ga-Se,2,Ga2Se3
1.0436,Ga-Se,2,Ga2Se3
0.5838,Ga-Se,2,Ga2Se3
1.1789,Ga-S-Se,3,Ga2SeS
0.5202999999999998,Ga-N-Sn,3,Ga2Sn3N4
0.0,Ga-Te,2,Ga2Te3
0.1829999999999998,Ga-Te,2,Ga2Te3
0.3640000000000001,Ga-Te,2,Ga2Te3
0.6375000000000002,Ga-Te,2,Ga2Te3
3.5125,Ga-O-Te,3,Ga2Te4O11
0.9609,Ga-Te,2,Ga2Te5
0.7341000000000006,Ga-O-Te,3,Ga2TeO6
2.0196,Ga-S-Te,3,Ga2TeS2
1.6141000000000003,Ga-Se-Te,3,Ga2TeSe2
2.192,Ga-O-W,3,Ga2WO6
2.6266000000000003,Ga-O-W,3,Ga2WO6
1.7670999999999997,Ga-O-W,3,Ga2WO6
3.1372,Ga-O-W,3,Ga2WO6
0.0,Ga-Se-W,3,Ga2WSe
0.0,B-Ga-Ni,3,Ga3(Ni10B3)2
0.0,Ag-Ga,2,Ga3Ag
0.0,As-Ga,2,Ga3As
0.0,Au-Ga,2,Ga3Au
0.0,B-Ga,2,Ga3B
0.0,B-Ga-Pt,3,Ga3B4Pt9
2.3955,B-Ga-N,3,Ga3BN4
0.0,Bi-Ga,2,Ga3Bi
0.0,Co-Ga,2,Ga3Co
0.0,Co-Ga-Ge,3,Ga3Co4Ge
0.0,Cu-Ga,2,Ga3Cu
0.6880999999999999,Cu-Ga-Se-Si,4,Ga3Cu3SiSe8
0.0,Fe-Ga,2,Ga3Fe
0.0,Co-Fe-Ga-Si,4,Ga3Fe4Co8Si
0.0,Ga-Ge,2,Ga3Ge
1.0804000000000005,Ga-Ge-N,3,Ga3Ge3N5
0.0,Ga-Ge-Pt,3,Ga3GePt8
0.0,Ga-Hg,2,Ga3Hg
0.0,Ga-Ir,2,Ga3Ir
1.0799999999999998,Ga-N-O,3,Ga3NO3