eg,chemsys,nelements,formula
6.2165,B-H-K,3,KBH4
1.4047999999999998,B-H-K,3,KBH4
6.0959,B-H-K,3,KBH4
0.0,B-Ir-K,3,KBIr2
4.1255,B-K-O,3,KBO2
4.5984,B-K-O-P-Pb,5,KBP2PbO8
0.0,Ag-Ba-K-Te,4,KBa(AgTe2)2
0.0,As-Ba-Fe-K,4,KBa(FeAs)4
0.0,Ba-Bi-K-O,4,KBa2(BiO3)3
0.0,As-Ba-Fe-K,4,KBa2(FeAs)6
0.0,Ba-Bi-K-O,4,KBa2Bi2O7
0.0,Ba-Bi-K-O,4,KBa2Bi2O9
2.7790000000000004,Ba-I-K-O,4,KBa2IO6
0.0,Ba-K-Nb-O,4,KBa2Nb3O9
0.0479999999999996,Ba-F-K-Ni,4,KBa2Ni2F9
0.0,Ba-K-Re,3,KBa2Re
0.0,Ba-Bi-K-O-Sm,5,KBa2SmBi2O9
3.2799,Ba-Cl-K-O-V,5,KBa2V2ClO7
0.0,Ba-K,2,KBa3
0.0,Ba-Bi-K-O,4,KBa3(BiO3)4
0.0,As-Ba-Fe-K,4,KBa3(FeAs)8
0.0,Ba-Co-K-O-Y,5,KBa3Y2(Co3O8)2
2.6467,Au-Ba-C-K-O,5,KBa4Au(CO)4
1.1399,Ba-F-K-O-Ti,5,KBa4Ti5O14F
4.7151,Al-Ba-K-O-Si,5,KBaAl3Si5O16
3.8409,As-Ba-K-O,4,KBaAsO4
5.3264,B-Ba-K-O-P,5,KBaB(PO4)2
1.5862999999999996,Ba-Bi-K-O-Te,5,KBaBiTeO6
2.4187,Ba-Bi-K-O-W,5,KBaBiWO6
1.5341,Ba-Bi-Ce-K-O,5,KBaCeBiO6
0.0,Ba-Ce-K-Mn-O,5,KBaCeMnO6
0.0,Ba-Ce-K-O-W,5,KBaCeWO6
0.0,Ba-Eu-K-O-W,5,KBaEuWO6
0.5118,Ba-Fe-K-O,4,KBaFeO3
2.8167000000000004,Ba-Gd-K-O-W,5,KBaGdWO6
0.0,Ba-K-La-Mn-O,5,KBaLaMnO6
1.9314,Ba-K-La-O-Se,5,KBaLaSeO6
2.9378,Ba-K-La-O-W,5,KBaLaWO6
5.5617,Ba-F-K-Li-Zn,5,KBaLiZnF6
0.0,Ba-K-Mg,3,KBaMg14
1.8093,Ba-K-Mn-O,4,KBaMnO4
0.0,Ba-K-N,3,KBaN
2.6507,Ba-Fe-K-Na-O-Si-Ti,7,KBaNa2Ti3Fe(Si2O9)2
2.8191000000000006,Ba-K-Nd-O-W,5,KBaNdWO6
0.0,Ba-K-O,3,KBaO3
1.1622,Ba-K-P,3,KBaP
4.9503,Ba-K-O-P,4,KBaPO4
0.0,Ba-Bi-K-O-Pr,5,KBaPrBiO6
2.8123000000000005,Ba-K-O-Pr-W,5,KBaPrWO6
0.985,Ba-K-Sb,3,KBaSb
3.928500000000001,Ba-H-K-O-Si,5,KBaSiHO4
0.0,Ba-K-Mn-O-Sm,5,KBaSmMnO6
0.0,Ba-K-Sn,3,KBaSn
0.0,Ba-K-Mn-O-Sr,5,KBaSrMnO6
0.0,Ba-Bi-K-O-Tb,5,KBaTbBiO6
0.2839,Ba-Cl-Cu-K-O-V,6,KBaV2CuClO7
5.3259,B-Ba-K-O-Y,5,KBaY(BO2)6
3.9314,B-Ba-K-O-Y,5,KBaY(BO3)2
5.5029,B-Be-K-O,4,KBe2B3O7
5.9979,B-Be-F-K-O,5,KBe2BO3F2
6.0524,B-Be-F-K-O,5,KBe2BO3F2
5.4514,Be-F-K-Zn,4,KBe3ZnF9
7.061299999999999,Be-F-K,3,KBeF3
3.0876,Be-H-K,3,KBeH3
0.0,Be-K-O,3,KBeO3
5.2634,Be-K-O-P,4,KBePO4
0.0,Be-K-Pt,3,KBePt
2.4244000000000003,Bi-K-O-W,4,KBi(WO4)2
0.0,Bi-K,2,KBi2
3.581,Bi-F-K,3,KBi2F7
4.6761,Bi-F-K,3,KBi2F7
0.0,Bi-K,2,KBi3
4.4569,Bi-F-K,3,KBi3F10
3.2321,Bi-F-K,3,KBiF4
4.1944,Bi-F-K,3,KBiF4
2.631,Bi-F-K,3,KBiF6
2.4402,Bi-F-K,3,KBiF6
1.8514,Bi-K-O,3,KBiO2
0.0,Bi-K-O,3,KBiO3
0.0,Bi-C-K-O-P,5,KBiPCO7
0.0,Bi-K-Pb,3,KBiPb
0.0,Bi-K-S,3,KBiS2
1.4158000000000004,Bi-K-S,3,KBiS2
0.0,Bi-K-Se,3,KBiSe2
0.8130999999999999,Bi-K-Se,3,KBiSe2
4.3224,Br-K,2,KBr
3.8761,Br-K,2,KBr
0.0,Br-K,2,KBr3
3.2009,Br-F-K,3,KBrF4
0.0639,Br-F-K,3,KBrF4
3.8569,Br-K-O,3,KBrO3
3.1089,Br-K-O,3,KBrO4
0.5841000000000001,C-K,2,KC
0.0,C-K,2,KC
3.2749,C-K,2,KC
0.5945,C-K,2,KC
1.9993,C-K-N-O,4,KC(NO2)2
0.0,C-K,2,KC2
0.0673999999999996,C-K,2,KC2
0.0707000000000004,C-K,2,KC2
4.5211,C-I-K-N,4,KC2IN2
4.6487,C-K-N,3,KC2N3
4.502599999999999,C-K-N,3,KC2N3
4.3295,C-K-N,3,KC2N3
3.7463,C-K-N,3,KC4N3
0.0,C-K,2,KC8
0.3141,Br-C-K-N-O,5,KCBr(NO2)2
1.9626,Br-C-K-N-O,5,KCBr(NO2)2
5.0567,C-K-N,3,KCN
0.0554999999999998,C-K-N,3,KCN
5.1351,C-K-N,3,KCN
5.021599999999999,C-K-N,3,KCN
5.026,C-K-N,3,KCN
1.2299,C-K-N,3,KCN
0.0,C-K-N,3,KCN2
3.3521,C-K-N-O,4,KCN3O2
1.9771,C-K-N-O,4,KCNO
4.6896,C-K-N-O,4,KCNO
2.7324,C-K-O,3,KCO2
0.0964,C-K-O,3,KCO3
0.8755999999999999,C-K-O,3,KCO3
6.3741,C-F-K-O,4,KCOF3
4.2285,C-K-N-S,4,KCSN
4.0327,C-K-N-S,4,KCSN
4.1109,C-K-N-S,4,KCSN
4.2439,C-K-N-S,4,KCSN
3.6215,C-K-N-Se,4,KCSeN
5.0471,Ca-K-O-P,4,KCa(PO3)3
0.0094,Ca-K-O-P,4,KCa2(P2O9)2
1.9665,Ca-K-Nb-O,4,KCa2Nb3O10
5.279100000000001,Ca-H-K-O-P,5,KCa2P4H11O18
2.1790000000000003,Ca-K-O-Ta,4,KCa2Ta3O10
0.0,Ca-K,2,KCa3
4.9526,Al-Ca-K-Mg-O-Si,6,KCa3Mg3Al(SiO3)8
4.5893,B-Ca-K-O,4,KCa4(BO3)3
4.2389,As-Ca-H-K-O,5,KCaAs(H4O3)4
0.0441999999999999,As-Ca-H-K-O,5,KCaAs(H4O3)4
0.0,As-Ca-K-O,4,KCaAsO12
0.8270000000000002,Bi-Ca-K,3,KCaBi
2.1352999999999995,Bi-Ca-K-O-W,5,KCaBiWO6
4.4047,Br-Ca-K,3,KCaBr3
3.6852,Br-Ca-K,3,KCaBr3
4.3552,C-Ca-F-K-O,5,KCaCO3F
1.7974,Bi-Ca-Ce-K-O,5,KCaCeBiO6
0.0,Ca-Ce-Fe-K-O,5,KCaCeFeO6
0.0,Ca-Ce-K-Mn-O,5,KCaCeMnO6
2.1093,Ca-Ce-K-Nb-O,5,KCaCeNbO6
1.9872999999999996,Ca-Ce-K-O-Sb,5,KCaCeSbO6
4.7635,Ca-Cl-K,3,KCaCl3
5.616,Ca-Cl-K,3,KCaCl3
4.7457,Ca-Cl-K,3,KCaCl3
2.0625000000000004,Ca-Dy-K-O-Se,5,KCaDySeO6
2.8505000000000003,Ca-Dy-K-O-W,5,KCaDyWO6
1.3723000000000003,Ca-Cu-Er-K-S,5,KCaEr2CuS5
0.0,Ca-Eu-Fe-K-O,5,KCaEuFeO6
0.0,Ca-Eu-K-O-Se,5,KCaEuSeO6
0.0,Ca-Eu-K-O-W,5,KCaEuWO6
6.1392,Ca-F-K,3,KCaF3
6.6502,Ca-F-K,3,KCaF3
6.8058,Ca-F-K,3,KCaF3
0.0,Bi-Ca-Fe-K-O,5,KCaFeBiO6
0.0,Ca-Fe-Gd-K-O,5,KCaGdFeO6
2.0096,Ca-Gd-K-O-Se,5,KCaGdSeO6
2.8078000000000003,Ca-Gd-K-O-W,5,KCaGdWO6
3.3257000000000003,Ca-H-K,3,KCaH3
1.2895,Bi-Ca-Hf-K-O,5,KCaHfBiO6
3.3114,Ca-Hf-K-O-Sb,5,KCaHfSbO6
3.6023999999999994,Ca-I-K,3,KCaI3
3.432,Ca-In-K-O-W,5,KCaInWO6
0.0,Ca-Fe-K-La-O,5,KCaLaFeO6
2.2661,Ca-K-La-O-Se,5,KCaLaSeO6
2.2667,Ca-K-La-O-W,5,KCaLaWO6
2.9186,Ca-K-La-O-W,5,KCaLaWO6
0.0,Ca-K-Mg,3,KCaMg14
0.0,Ca-K-Mg,3,KCaMg6
1.3904999999999998,Ca-K-N,3,KCaN
0.0,Ca-K-N,3,KCaN
2.7607,Ca-F-K-Nb-O,5,KCaNb2O6F
0.0,Bi-Ca-K-Nb-O,5,KCaNbBiO6
0.0,Ca-K-Nb-O-W,5,KCaNbWO6
2.8268000000000004,Ca-K-Nd-O-W,5,KCaNdWO6
0.0,Ca-K-Ni,3,KCaNi2
2.2301,Ca-H-K-Ni-O-Se,6,KCaNi2H3(SeO5)2
1.7653,Ca-H-K-Ni-O-Se,6,KCaNi2H3(SeO5)2
2.1295,Ca-H-K-Ni-O-Se,6,KCaNi2H3(SeO5)2
0.0,Ca-H-K-Ni-O-Se,6,KCaNi2H3(SeO5)2
0.0,Ca-K-O,3,KCaO3
2.341,Ca-H-K-O-P,5,KCaPHO4
0.0752999999999999,Ca-K-O-P,4,KCaPO4
0.0,Ca-K-O-P,4,KCaPO5
0.0,Ca-K-O-Pr-Sb,5,KCaPrSbO6
2.8172,Ca-K-O-Pr-W,5,KCaPrWO6
2.8049,Ca-K-O-Pr-W,5,KCaPrWO6
4.3515,Ca-H-K-O-Si,5,KCaSiHO4
0.0,Ca-Fe-K-O-Sm,5,KCaSmFeO6
2.0666,Ca-K-O-Se-Sm,5,KCaSmSeO6
2.8322000000000003,Ca-K-O-Sm-W,5,KCaSmWO6
0.0,Bi-Ca-K-O-Sn,5,KCaSnBiO6
0.0,Bi-Ca-K-O-Tb,5,KCaTbBiO6
0.0,Ca-Fe-K-O-Tb,5,KCaTbFeO6
0.0,Ca-K-Nb-O-Tb,5,KCaTbNbO6
2.8457,Ca-K-O-Tb-W,5,KCaTbWO6
0.6149,Bi-Ca-K-O-Ti,5,KCaTiBiO6
2.0489,Ca-K-O-Se-Y,5,KCaYSeO6
2.8433,Ca-K-O-W-Y,5,KCaYWO6
1.2018,Bi-Ca-K-O-Zr,5,KCaZrBiO6
2.243,Ca-K-Nb-O-Zr,5,KCaZrNbO6
3.2186000000000003,Ca-K-O-Sb-Zr,5,KCaZrSbO6
0.1906999999999999,C-Cd-K-O,4,KCd(CO2)3
2.305,Cd-K-N-O,4,KCd(NO2)3
0.0,Cd-K-N-O,4,KCd(NO2)3
4.1305000000000005,Cd-K-O-P,4,KCd(PO3)3
0.0,Cd-K,2,KCd3
0.0,As-Cd-K,3,KCd4As3
0.0,Cd-K-P,3,KCd4P3
0.1656000000000002,As-Cd-K,3,KCdAs
2.616,Au-C-Cd-K-N,5,KCdAu3(CN)6
3.1006,Cd-F-K,3,KCdF3
3.3539,Cd-F-K,3,KCdF3
0.5468999999999999,Cd-K-N,3,KCdN
0.5582999999999999,Cd-K-N,3,KCdN
0.0190000000000001,Cd-K-N,3,KCdN
0.0,Cd-K-N,3,KCdN3
0.0,Cd-K-O,3,KCdO3
0.0,Cd-K-Sb,3,KCdSb
0.4951,Ce-Cl-K-O,4,KCe(ClO)4
0.0,Ce-K-Mo-O,4,KCe(MoO4)2
0.3253999999999992,Ce-K-O-P,4,KCe(PO3)4
0.3395999999999999,Ce-K-O-S,4,KCe(SO4)2
0.0,Ce-K-O-W,4,KCe(WO4)2
0.0,Ce-K,2,KCe3
0.0,Ce-K-S,3,KCe5S8
0.0,Ag-Ce-K-Te,4,KCeAgTe4
0.0,Ce-Cu-K-Te,4,KCeCuTe4
0.0,Ce-Eu-K-O-W,5,KCeEuWO6
0.0,Ce-F-K,3,KCeF4
0.04,Ce-F-K,3,KCeF4
0.5223,Ce-Fe-K-Mo-O,5,KCeFeMoO6
0.0,Ce-Ge-K-Se,4,KCeGeSe4
0.1491000000000006,Ce-Hf-K-O,4,KCeHf2O6
0.0,Ce-Hf-K-O,4,KCeHf4O12
0.1719999999999997,Ce-Hf-K-O-Sn,5,KCeHfSnO6
0.1508999999999996,Ce-Hf-K-O-Zr,5,KCeHfZrO6
0.0,Ce-K-Mg,3,KCeMg14
0.0,Ce-K-Mg-O,4,KCeMg14O16
0.0,Ce-K-Mg,3,KCeMg6
0.0,Ce-K-Mg-O,4,KCeMg6O8
0.1377000000000006,Ce-K-Mg-O-W,5,KCeMgWO6
0.1443000000000003,Ce-K-Mn-O-W,5,KCeMnWO6
0.0,Ce-K-Nb-O,4,KCeNb2O6
0.0,Ce-K-Nb-O,4,KCeNb4O12
1.8976999999999995,Ce-K-Nb-O-Sn,5,KCeNbSnO6
1.6239,Ce-K-Nb-O-Sn,5,KCeNbSnO6
2.0177,Ce-K-Mn-Nd-O,5,KCeNdMnO6
1.1836,C-Ce-K-O-P,5,KCePCO7
1.9978,Ce-Ge-K-O-Pr,5,KCePrGeO6
0.0,Ce-K-S,3,KCeS2
0.0,Ce-K-Se,3,KCeSe4
0.0386000000000006,Ce-K-S-Si,4,KCeSiS4
0.0743,Ce-K-S-Si,4,KCeSiS4
0.0,Ce-K-O-Sn-W,5,KCeSnWO6
0.0293999999999998,Ce-K-O-Ti,4,KCeTi2O6
0.0,Ce-K-O-V-W,5,KCeVWO6
0.1488,Ce-K-O-Zr,4,KCeZr2O6
0.0,Ce-K-O-Zr,4,KCeZr4O12
5.027,Cl-K,2,KCl
4.8005,Cl-K,2,KCl
0.0,Cl-K,2,KCl3
2.3095,Cl-K-O,3,KClO2
5.4717,Cl-K-O,3,KClO3
5.3358,Cl-K-O,3,KClO3
5.5725,Cl-K-O,3,KClO3
5.5614,Cl-K-O,3,KClO4
5.1439,Cl-K-O,3,KClO4
0.0,Co-K,2,KCo
0.0,Co-K-O-P,4,KCo(PO3)3
2.4746,Co-K-O-P,4,KCo(PO3)3
0.0,Co-K-Mo-O,4,KCo2(MoO5)2
0.3045,Co-K-Mo-O,4,KCo2(MoO5)2
0.0,Co-H-K-O-Se,5,KCo2H3(SeO5)2
0.4622,Co-H-K-O-Se,5,KCo2H3(SeO5)2
0.0,Au-C-Co-K-N,5,KCoAu3(CN)6
0.0,Cl-Co-K,3,KCoCl3
0.0399999999999995,Co-Cu-K-Se,4,KCoCu3Se4
0.0,Co-Cu-K-S,4,KCoCuS2
0.0,Co-F-K,3,KCoF3
0.6322999999999999,Co-F-K,3,KCoF4
2.9178,C-Co-H-K-O,5,KCoH3(CO2)3
2.313,C-Co-H-K-O,5,KCoH3(CO2)3
0.0,Co-K-N,3,KCoN
0.0,Co-K-O,3,KCoO2
0.5208999999999999,Co-K-O,3,KCoO2
1.1848,Co-K-O,3,KCoO2
1.3214,Co-K-O,3,KCoO2
0.0,Co-K-O,3,KCoO3
0.0,C-Co-K-O-P,5,KCoPCO7
1.6258,Co-H-K-O-P,5,KCoPH2O5
2.9629,Cr-K-Mo-O,4,KCr(MoO4)2
2.7634,Cr-K-O-S,4,KCr(SO4)2
0.4241000000000001,Cr-Fe-H-K-O,5,KCr2Fe(HO4)2
0.0,Cr-Fe-K-O,4,KCr2Fe3O14
1.2042000000000002,Cr-Fe-H-K-O,5,KCr2FeHO8
0.0,Cr-Fe-K-O,4,KCr2FeO10
1.5071,Cr-Fe-K-O,4,KCr2FeO8
0.0,Cr-Fe-K-O,4,KCr2FeO9
1.5634,Cr-K-O,3,KCr3O8
0.4926000000000003,Cr-K-S,3,KCr3S5
0.0,Cr-K-O,3,KCr4O8
0.2365999999999992,Cr-K-S,3,KCr5S8
0.0037000000000002,Cr-K-Se,3,KCr5Se8
0.1558000000000001,Cr-K-Se,3,KCr5Se8
0.0,Cr-K-Te,3,KCr5Te8
0.0,C-Cd-Cr-K-N-O,6,KCrCdC6N6O
0.0,Cl-Cr-K,3,KCrCl3
2.5006,Cl-Cr-K-O,4,KCrClO3
1.5720000000000005,Cr-F-K,3,KCrF3
0.1573999999999999,Cr-F-K,3,KCrF3
0.0,Cr-F-K,3,KCrF3
1.9672000000000005,Cr-F-K,3,KCrF3
1.968,Cr-F-K,3,KCrF3
0.7059000000000002,Cr-F-K,3,KCrF3
1.398,Cr-F-K,3,KCrF6
3.819,Cl-Cr-H-K-N-O,6,KCrH18N6(ClO2)4
3.7615,Cl-Cr-H-K-N-O,6,KCrH18N6(ClO2)4
3.2405,C-Cr-H-K-O,5,KCrH4(C2O5)2
0.0,Cr-K-N,3,KCrN
3.1558,Cr-F-K-Ni,4,KCrNiF6
0.4728000000000001,Cr-F-K-Ni-O,5,KCrNiOF6
3.056,Cr-K-O,3,KCrO2
0.5996999999999999,Cr-K-O,3,KCrO2
2.9299000000000004,Cr-K-O,3,KCrO2
0.0,Cr-K-O,3,KCrO3
2.6876,Cr-F-K-O,4,KCrO3F
1.1285000000000005,Cr-K-P-S,4,KCrP2S7
0.8471,C-Cr-K-O-P,5,KCrPCO7
1.1644,Cr-K-S,3,KCrS2
0.1029999999999997,Cr-K-S-Sn,4,KCrSnS4
0.7213999999999996,Bi-Cu-K-S,4,KCu(BiS2)2
2.6146000000000003,C-Cu-K-N,4,KCu(CN)2
0.0,Cu-K-O-S,4,KCu2(SO5)2
0.0,Cu-Ge-K-S,4,KCu2GeS4
0.0,Cu-H-K-O-S,5,KCu2H2(SO5)2
0.0,Cu-H-K-O-Se,5,KCu2H2(SeO5)2
0.9117,Cl-Cu-H-K-N-O,6,KCu2H20N3(Cl2O)4
0.5186,Cu-H-K-O-S,5,KCu2H3(SO5)2
0.3523999999999998,Cu-F-H-K-O-P,6,KCu2P2H3(O4F)2
0.0,As-Cu-K-O,4,KCu3(AsO5)2
0.9037,Cu-Ge-K-Se,4,KCu3GeSe4
0.0,Cu-K-Ni-Se,4,KCu3NiSe4
0.1755999999999999,Cu-K-Pb-Se,4,KCu3PbSe4
0.4727000000000005,Cu-K-S,3,KCu3S2
1.3154000000000003,Cu-K-Se-Si,4,KCu3SiSe4
1.2004,Cu-K-Se-Sn,4,KCu3SnSe4
0.4237999999999999,Cu-K-Te,3,KCu3Te2
0.0821,Cu-K-O-P,4,KCu4(PO4)3
1.2885000000000004,As-Cu-K-S,4,KCu4AsS4
0.0,Cu-K-S,3,KCu4S3
0.0,Cu-K-Se,3,KCu4Se3
0.2427999999999999,Cu-K-S,3,KCu7S4
2.2166,Ag-C-Cu-K-N,5,KCuAg2(CN)4
1.9346,C-Cu-K,3,KCuC2
0.0,C-Cu-F-K-O,5,KCuCO3F
0.0,Cl-Cu-K,3,KCuCl3
0.2681999999999999,Cl-Cu-K,3,KCuCl3
0.0,Cu-F-K,3,KCuF3
0.0,Cu-H-K,3,KCuH3
0.0,Cu-I-K-O,4,KCuIO6
0.0488000000000004,Cu-K-N,3,KCuN
0.0,Cu-K-N,3,KCuN
0.0,Cu-K-O,3,KCuO
1.2173,Cu-K-O,3,KCuO
1.243,Cu-K-O,3,KCuO
0.6204000000000001,Cu-K-O,3,KCuO2
0.0168999999999999,Cu-H-K-O-P,5,KCuPH2O5
0.1717000000000001,Cu-K-O-P,4,KCuPO4
0.9195000000000002,Cu-K-Pd-Se,4,KCuPdSe5
1.8615,Cu-K-S,3,KCuS
0.0,Cu-K-S,3,KCuS3
0.1761999999999997,Cu-K-Se,3,KCuSe
0.6037000000000003,Cu-K-Te,3,KCuTe
0.7795,Cu-K-O-Te,4,KCuTeO6
4.2456,C-Dy-K-O,4,KDy(CO3)2
3.4338,Dy-K-Mo-O,4,KDy(MoO4)2
3.2098000000000004,Dy-K-Mo-O,4,KDy(MoO4)2
5.2774,Dy-K-O-P,4,KDy(PO3)4
6.988300000000001,Dy-F-K,3,KDy3F10
7.3825,Be-Dy-F-K,4,KDyBeF6
0.0,Dy-I-K,3,KDyI3
3.9736,Dy-K-O,3,KDyO2
0.0,Dy-K-O,3,KDyO3
2.3337000000000003,Dy-K-S,3,KDyS2
2.5226,Dy-K-O-Sn-W,5,KDySnWO6
0.0,Dy-K-O-Ti,4,KDyTi4O12
2.2686999999999995,Dy-K-O-Ti,4,KDyTiO4
4.4873,C-Er-K-O,4,KEr(CO3)2
3.1822,Er-K-Mo-O,4,KEr(MoO4)2
5.2949,Er-K-O-P,4,KEr(PO3)4
3.2911,Er-K-O-W,4,KEr(WO4)2
0.5638999999999998,Cu-Er-K-Se,4,KEr2CuSe4
7.0649,Er-F-K,3,KEr3F10
7.4221,Be-Er-F-K,4,KErBeF6
0.2097,Er-H-K-O-Se,5,KErHSe2O9
3.9606,Er-K-O,3,KErO2
0.0,Er-K-O,3,KErO3
2.3727,Er-K-S,3,KErS2
1.3304000000000005,Er-K-Te,3,KErTe2
0.0,C-Eu-K-O,4,KEu(CO3)2
0.0,Cu-Eu-K-Te,4,KEu(CuTe2)2
0.0,Eu-Fe-K-O,4,KEu(FeO3)4
0.0,Eu-Ge-K-O,4,KEu(GeO3)4
0.0,Eu-K-Mo-O,4,KEu(MoO4)2
0.0,Eu-K-Ni-O,4,KEu(NiO3)4
0.0,Eu-K-O-Sn,4,KEu(SnO3)2
0.0,Eu-K-O-W,4,KEu(WO3)2
0.0,Eu-K-O-W,4,KEu(WO3)4
0.0,Eu-K-O-W,4,KEu(WO4)2
0.0,Eu-K,2,KEu3
0.0,Al-Bi-Eu-K-O,5,KEuAlBiO6
0.0,As-Eu-K-S,4,KEuAsS4
0.0,Bi-Eu-K-O-Sb,5,KEuBiSbO6
0.7314999999999996,Bi-Eu-K-O-W,5,KEuBiWO6
0.0,Bi-Dy-Eu-K-O,5,KEuDyBiO6
0.0,Dy-Eu-K-O-Se,5,KEuDySeO6
0.3304,Dy-Eu-K-O-W,5,KEuDyWO6
0.02,Eu-F-K,3,KEuF4
0.0,Bi-Eu-Fe-K-O,5,KEuFeBiO6
0.0,Eu-Fe-K-O-Sn,5,KEuFeSnO6
0.0,Eu-Ge-K-S,4,KEuGeS4
0.0,Eu-Hf-K-O,4,KEuHf2O6
0.0,Eu-Hf-K-O,4,KEuHf4O12
0.0,Eu-Fe-Hf-K-O,5,KEuHfFeO6
0.0,Eu-Hf-K-O-Sn,5,KEuHfSnO6
0.0,Eu-Hf-K-O-Ti,5,KEuHfTiO6
0.0,Eu-Hf-K-O-Zr,5,KEuHfZrO6
0.0,Eu-K-Mg-O-W,5,KEuMgWO6
0.0,Eu-K-Mn-O,4,KEuMn4O12
0.0,Bi-Eu-K-Mn-O,5,KEuMnBiO6
0.0,Eu-K-Mn-O-Sn,5,KEuMnSnO6
0.0,Eu-K-Nb-O,4,KEuNb2O6
0.0,Eu-K-Nb-O,4,KEuNb4O12
0.0,Bi-Eu-K-Nb-O,5,KEuNbBiO6
0.0,Eu-In-K-Nb-O,5,KEuNbInO6
0.0,Eu-K-O,3,KEuO2
0.0,Eu-K-O-P,4,KEuPO4
0.0895999999999999,Eu-K-P-Se,4,KEuPSe4
0.0,Eu-K-O-Pd,4,KEuPdO3
0.0,Eu-K-S,3,KEuS2
0.6482999999999999,Eu-K-O-Sb-W,5,KEuSbWO6
0.0,Eu-K-S-Si,4,KEuSiS4
0.0,Bi-Eu-K-O-Sn,5,KEuSnBiO6
0.0,Eu-K-O-Sn-W,5,KEuSnWO6
0.0,Eu-K-O-Ti,4,KEuTiO4
0.0469000000000001,Eu-K-O-V,4,KEuV4O12
0.0,Eu-K-O-Sb-Y,5,KEuYSbO6
0.3611000000000004,Eu-K-O-W-Y,5,KEuYWO6
0.0,Eu-K-O-Zr,4,KEuZr2O6
0.0,Eu-K-O-Zr,4,KEuZr4O12
0.0,Bi-Eu-K-O-Zr,5,KEuZrBiO6
0.0,Eu-Fe-K-O-Zr,5,KEuZrFeO6
0.0,Eu-Ge-K-O-Zr,5,KEuZrGeO6
0.0,Eu-K-O-Sn-Zr,5,KEuZrSnO6
5.949400000000001,F-K,2,KF
6.274699999999999,F-K,2,KF
1.4455999999999998,F-K,2,KF2
0.0,F-K,2,KF5
0.0,Fe-K,2,KFe
2.4118,Fe-K-Mo-O,4,KFe(MoO4)2
2.3116000000000003,Fe-K-Mo-O,4,KFe(MoO4)2
2.4763,Fe-K-O-S,4,KFe(SO4)2
0.1021,Fe-K-O-Se,4,KFe(SeO3)4
0.0,Fe-K-Mo-O,4,KFe2(MoO5)2
0.0,Fe-K-S,3,KFe2S3
0.0,Fe-K-Se,3,KFe2Se3
0.0,Fe-K-O-P,4,KFe3(PO6)2
0.0,Fe-K-O-S,4,KFe3(SO7)2
1.8639,Fe-H-K-O-S,5,KFe3H6(SO7)2
1.9244,Fe-K-O-Si,4,KFe4(SiO4)3
0.0,As-Fe-K,3,KFeAs2
2.5059,B-Fe-H-K-O-P,6,KFeBP2HO9
0.0,Bi-Fe-K-O-W,5,KFeBiWO6
0.0477000000000003,Cl-Fe-K,3,KFeCl3
0.0,Cu-Fe-K-S,4,KFeCuS2
0.0,Cu-Fe-K-Se,4,KFeCuSe2
0.0,F-Fe-K,3,KFeF3
2.2009000000000003,F-Fe-K,3,KFeF4
0.0,Fe-H-K-O-S,5,KFeH5(SO5)2
0.0,Fe-K-N,3,KFeN
0.4473999999999996,Fe-K-N,3,KFeN
0.0,C-Fe-K-N-Ni,5,KFeNi(CN)6
2.8149,Fe-K-O,3,KFeO2
0.0,Fe-K-O,3,KFeO2
0.5258,Fe-K-O,3,KFeO3
0.0,Fe-K-P,3,KFeP
0.0011999999999999,C-Fe-K-O-P,5,KFePCO7
3.4089,Fe-K-O-P,4,KFePO4
0.0,Fe-K-S,3,KFeS2
0.1805,Fe-K-O-S,4,KFeS2O9
0.0,Fe-K-Se,3,KFeSe2
0.0,Fe-K-S-Se,4,KFeSeS
1.4611999999999998,Fe-K-O-Sn,4,KFeSn3O8
0.0,Fe-K-Tc,3,KFeTc2
0.0,Ga-K,2,KGa
0.0,Ga-K-O-Se,4,KGa(SeO3)4
0.2162999999999999,Ga-K,2,KGa3
2.6826,As-Ga-K-O,4,KGaAs2O7
0.0,B-Ga-H-K-O-P,6,KGaBP2H3O10
4.1172,C-Fe-Ga-K-N,5,KGaFe(CN)6
3.0684,Ga-Ge-K-O,4,KGaGe3O8
4.9369,Ga-H-K,3,KGaH4
1.4307,Ga-K-Te,3,KGaTe2
2.4168,B-Gd-H-K,4,KGd(BH4)4
2.4575,C-Gd-K-O,4,KGd(CO3)2
0.0,Fe-Gd-K-O,4,KGd(FeO3)2
0.0,Fe-Gd-K-O,4,KGd(FeO3)4
2.885,Gd-K-Mo-O,4,KGd(MoO4)2
3.1820000000000004,Gd-K-Mo-O,4,KGd(MoO4)2
0.0,Gd-K-Mo-O,4,KGd(MoO4)2
3.2157,Gd-K-O-P,4,KGd(PO3)4
3.2475,Gd-K-O-W,4,KGd(WO4)2
3.1609000000000003,Gd-K-O-W,4,KGd(WO4)2
0.8971,Cu-Gd-K-S,4,KGd2CuS4
0.7999,Cu-Gd-K-Se,4,KGd2CuSe4
0.4727,C-F-Gd-K-O,5,KGdCO3F2
2.6106000000000003,C-F-Gd-K-O,5,KGdCO3F2
4.3628,F-Gd-K,3,KGdF4
0.0,Gd-Ge-K-S,4,KGdGeS4
1.7960999999999998,Gd-Hf-K-O,4,KGdHf2O6
0.8886000000000003,Gd-Hf-K-O-Ti,5,KGdHfTiO6
0.0,Gd-K-Nb-O,4,KGdNb2O6
1.5497999999999998,Gd-K-Nb-O,4,KGdNb4O12
3.05,Gd-K-O,3,KGdO2
0.0,Gd-K-O,3,KGdO3
0.7150000000000001,Gd-K-O-Pd,4,KGdPdO3
1.8308,Gd-K-S,3,KGdS2
2.0455000000000005,Gd-K-O-Sn-W,5,KGdSnWO6
2.4188,Gd-K-O-Sn-W,5,KGdSnWO6
0.8263000000000003,Gd-K-Te,3,KGdTe2
0.0,Gd-K-Te,3,KGdTe4
0.0,Gd-K-O-Ti,4,KGdTi4O12
2.1484000000000005,Gd-K-O-Ti,4,KGdTiO4
0.5637000000000001,Gd-K-O-V,4,KGdV4O12
0.8262999999999998,Gd-K-O-Ti-Zr,5,KGdZrTiO6
0.0,Ge-K,2,KGe
3.6226,Ge-K-O-P,4,KGe2(PO4)3
1.6518000000000006,Ge-K-N,3,KGe2N3
0.9083,Br-Ge-K,3,KGeBr3
2.9026,Br-Ge-K,3,KGeBr3
1.4859,Cl-Ge-K,3,KGeCl3
2.8924000000000003,Cl-Ge-K,3,KGeCl3
1.6721,Ge-K-N,3,KGeN
1.3713999999999995,Ge-K-N,3,KGeN
2.6817,Ge-K-N-O,4,KGeNO
3.2424,C-Ge-K-O-P,5,KGePCO7
3.4331,H-K,2,KH
0.0,C-H-K-N,4,KH(CN2)3
3.1506,C-H-K-O,4,KH(CO2)2
3.0031,Cl-H-K-N-O-Os,6,KH18OsN6(ClO2)4
0.9834,Cl-H-K-N-O-Os,6,KH18OsN6(ClO2)4
0.0,Cl-H-K-N-O-Ru,6,KH18RuN6(ClO2)4
3.2061,H-I-K-O,4,KH2(IO3)3
4.0164,C-H-K-N,4,KH2CN5
4.9019,F-H-K,3,KH2F3
1.9079,H-I-K-O,4,KH2I3O
2.0676,H-K-N,3,KH2N
1.5572,Cl-H-K-N-Os,5,KH2OsNCl4
5.2066,H-K-N-O-S,5,KH2SNO3
3.6477,H-K-N-O-Se,5,KH2SeNO3
0.0,H-K,2,KH3
5.179,C-H-K-O,4,KH3C2O3
3.8936,C-H-K-N,4,KH3CN
7.3743,F-H-K,3,KH3F4
4.3804,H-K-O,3,KH3O2
2.3635,C-F-H-K-O,5,KH4C6O3F5
7.439,F-H-K,3,KH4F5
5.1966,F-H-K-O,4,KH4O2F
4.7865,H-K-O,3,KH5O3
2.5404,H-K-N,3,KH8N3
2.7786,F-H-K-N-W,5,KH8W(NF3)2
3.2305,F-H-K-N-W,5,KH8W(NF3)2
3.6514,F-H-K-N-O-W,6,KH8WN2(OF)3
3.8835,F-H-K-N-O-W,6,KH8WN2(OF)3
0.8514999999999999,C-H-K-N-O,5,KHC(NO)2
2.7798,C-H-K-N-O,5,KHCN4O5
4.3333,C-H-K-O,4,KHCO2
3.4174,C-H-K-O,4,KHCO3
5.0054,C-H-K-O,4,KHCO3
5.0147,C-H-K-O,4,KHCO3
4.9811,C-H-K-O,4,KHCO3
6.9658,F-H-K,3,KHF2
3.6187,H-K-O,3,KHO
3.6766,H-K-O,3,KHO
3.6423,H-K-O,3,KHO
3.2248,H-K-S,3,KHS
3.2359,H-K-S,3,KHS
4.2413,H-K-O-Se,4,KHSeO3
0.8614999999999999,Bi-Hf-K-O,4,KHf2BiO6
0.0,Bi-Hf-K-O,4,KHf4BiO12
1.707,Cu-Hf-K-Se,4,KHfCu3Se4
0.7570000000000001,Cu-Hf-K-S,4,KHfCuS3
0.5172999999999996,Hf-In-K-O-W,5,KHfInWO6
0.0,Hf-K-Mg,3,KHfMg14
0.0,Hf-K-Mg-O,4,KHfMg14O15
0.0,Hf-K-Mg,3,KHfMg6
0.0,Hf-K-Mg-O,4,KHfMg6O7
0.0589000000000003,Hf-K-Mg-O,4,KHfMg6O7
0.8812000000000002,Hf-K-Mn-O-Sb,5,KHfMnSbO6
0.0,Bi-Hf-K-Nb-O,5,KHfNbBiO6
0.0,Hf-In-K-Nb-O,5,KHfNbInO6
0.0,Hf-K-Ni,3,KHfNi
0.0,Hf-K-O,3,KHfO3
5.1465,C-Hf-K-O-P,5,KHfPCO7
1.0033,Bi-Hf-K-O-Sn,5,KHfSnBiO6
2.858,Hf-K-O-Sb-Sn,5,KHfSnSbO6
0.802,Bi-Hf-K-O-Zr,5,KHfZrBiO6
0.0,Hg-K,2,KHg
0.0,Hg-K,2,KHg2
0.0,B-Hg-K,3,KHg2B
2.6937,Cl-Hg-K-O-S,5,KHg2S(ClO)3
0.0,Hg-K,2,KHg3
2.6479,Cl-Hg-K,3,KHg5Cl11
0.0,As-Hg-K,3,KHgAs
0.7111000000000001,Br-Hg-K-O,4,KHgBr3O
0.5474000000000001,Br-Hg-K-O,4,KHgBr3O
1.2074,Br-Hg-K-O,4,KHgBr3O
0.0,C-Hg-K,3,KHgC2
2.6356,C-Hg-I-K-N,5,KHgC2IN2
1.6838,C-Hg-K-N-S,5,KHgC3(SN)3
0.6082000000000001,F-Hg-K,3,KHgF3
0.0,Hg-K-Sb,3,KHgSb
4.2739,C-Ho-K-O,4,KHo(CO3)2
3.2092,Ho-K-Mo-O,4,KHo(MoO4)2
5.3316,Ho-K-O-P,4,KHo(PO3)4
3.341,Ho-K-O-W,4,KHo(WO4)2
1.0943,Cu-Ho-K-Se,4,KHo2Cu3Se5
1.036,Cu-Ho-K-S,4,KHo2CuS4
0.5635999999999997,Cu-Ho-K-Se,4,KHo2CuSe4
7.085,F-Ho-K,3,KHo3F10
7.4029,Be-F-Ho-K,4,KHoBeF6
3.1006,Co-Ho-K-O-Si,5,KHoCoSi2O7
3.0267,Co-Ho-K-O-Si,5,KHoCoSi2O7
3.9742,Ho-K-O,3,KHoO2
0.0,Ho-K-O,3,KHoO3
2.3505000000000003,Ho-K-S,3,KHoS2
3.7452,I-K,2,KI
3.8513,I-K,2,KI
3.2404,I-K,2,KI
3.7324,I-K,2,KI
4.16,F-I-K-O,4,KI(OF)2
3.7254,F-I-K-O,4,KI(OF)2
0.7741999999999999,Cl-I-K-O,4,KICl2O
0.0,I-K-O,3,KIO2
2.8548,I-K-O,3,KIO3
2.8130000000000006,I-K-O,3,KIO3
2.5295,I-K-O,3,KIO3
0.0,I-K-O,3,KIO3
2.5682,I-K-O,3,KIO3
2.3492,I-K-O,3,KIO4
2.3143,Ge-In-K-O,4,KIn(GeO3)2
0.0,Ge-In-K-O,4,KIn(GeO3)4
0.0758999999999998,In-K-Mo-Se,4,KIn(MoSe)6
0.0540000000000002,In-K-Mo-Te,4,KIn(TeMo)6
0.0,In-K-O-W,4,KIn(WO3)2
0.3201999999999998,In-K-O-W,4,KIn(WO3)4
4.3176000000000005,In-K-O-W,4,KIn(WO4)2
0.0,In-K,2,KIn3
0.0,In-K,2,KIn4
1.5349000000000004,In-K-S,3,KIn5S8
1.2568,In-K-S,3,KIn5S8
0.0,Co-In-K,3,KIn9Co2
0.0,In-K-Ni,3,KIn9Ni2
4.1152,B-H-In-K-O-P,6,KInBP2HO9
0.8797,Br-In-K,3,KInBr3
1.5970999999999995,Cl-In-K,3,KInCl3
2.3697,F-In-K,3,KInF3
0.0,I-In-K,3,KInI3
0.0,In-K-N,3,KInN
2.0775,In-K-O,3,KInO2
0.0,In-K-O,3,KInO3
2.049,In-K-P-S,4,KInP2S7
1.5869,In-K-Se,3,KInSe2
0.9869,In-K-Te,3,KInTe2
0.0,Cu-K-La-O,4,KLa(CuO2)2
0.0,Fe-K-La-O,4,KLa(FeO3)4
3.3346,K-La-Mo-O,4,KLa(MoO4)2
0.0,K-La-Ni-O,4,KLa(NiO3)4
4.3089,K-La-O-S,4,KLa(SO4)2
1.101,K-La-O-Sn,4,KLa(SnO3)2
0.0,K-La-O-Sn,4,KLa(SnO3)4
3.8549,K-La-O-W,4,KLa(WO4)2
4.1862,K-La-O-W,4,KLa(WO4)2
0.0,Ag-K-La-Te,4,KLa2Ag3Te8
3.7476,K-La-Nb-O,4,KLa2NbO6
0.0,K-La,2,KLa3
0.0,Cu-K-La-O,4,KLa7(CuO4)4
0.0,Al-Bi-K-La-O,5,KLaAlBiO6
3.7242,C-K-La-O,4,KLaCO4
2.0494000000000003,Ce-Ge-K-La-O,5,KLaCeGeO6
2.0577,Ce-Hf-K-La-O,5,KLaCeHfO6
1.3357,Ce-K-La-Ni-O,5,KLaCeNiO6
2.091,Ce-K-La-O-Sn,5,KLaCeSnO6
0.0,Co-K-La-O-W,5,KLaCoWO6
0.2323000000000004,Cu-K-La-Te,4,KLaCuTe4
0.0,Cu-K-La-O-W,5,KLaCuWO6
1.9268,Bi-Dy-K-La-O,5,KLaDyBiO6
0.2833999999999999,Dy-Fe-K-La-O,5,KLaDyFeO6
0.0,Dy-K-La-Mn-O,5,KLaDyMnO6
2.1462000000000003,Dy-K-La-Nb-O,5,KLaDyNbO6
2.394,Dy-K-La-O-Sb,5,KLaDySbO6
0.0,Eu-K-La-O-Sb,5,KLaEuSbO6
0.0421000000000004,Eu-K-La-O-W,5,KLaEuWO6
6.1827,F-K-La,3,KLaF4
6.0985000000000005,F-K-La,3,KLaF4
6.1269,F-K-La,3,KLaF4
0.3613999999999997,Bi-Fe-K-La-O,5,KLaFeBiO6