eg,chemsys,nelements,formula
0.0,Cu-La-O,3,La4CuO8
0.0,C-Dy-La,3,La4DyC10
0.0,Co-Fe-La-O,4,La4Fe(CoO4)3
0.0,Fe-La-Ni-O,4,La4Fe(NiO4)3
0.0,Fe-La-Ni-O,4,La4Fe(NiO5)2
0.0,Fe-La-Ni-O,4,La4Fe3NiO12
2.785800000000001,Fe-Ga-La-O,4,La4Ga3FeO12
0.0,Ga-La-Si,3,La4GaSi3
0.0,H-La,2,La4H9
0.0,C-Ho-La,3,La4HoC10
0.0,Ir-La,2,La4Ir
0.0,La-Mg,2,La4Mg
0.0,Cu-La-Mg-O,4,La4Mg(Cu2O5)2
1.6868999999999996,La-Mg-Mo-O,4,La4Mg(MoO6)2
1.010199999999999,Co-La-Mg-O,4,La4MgCoO8
0.0,Co-La-Mg-O,4,La4MgCoO8
1.6334999999999995,Cr-La-Mg-O,4,La4MgCr2O12
1.0422000000000002,Cr-La-Mg-O,4,La4MgCr2O12
1.0735,Cr-La-Mg-O,4,La4MgCr3O12
1.0145,Fe-La-Mg-O,4,La4MgFeO8
0.0,Fe-La-Mg-O,4,La4MgFeO8
2.7330000000000005,Fe-Ga-La-Mg-O,5,La4MgGa2(FeO6)2
2.7512,Fe-Ga-La-Mg-O,5,La4MgGa2(FeO6)2
2.4268,Fe-Ga-La-Mg-O,5,La4MgGa2(FeO6)2
2.3173000000000004,Fe-Ga-La-Mg-O,5,La4MgGa2(FeO6)2
2.5975,Fe-Ga-La-Mg-O,5,La4MgGa2(FeO6)2
0.0,La-Mg-Mn-O,4,La4MgMnO8
0.113100000000001,La-Mg-Mn-O,4,La4MgMnO8
1.0431999999999997,La-Mg-Ni-O-W,5,La4MgNi3WO12
0.0,La-Mg-Ni-O,4,La4MgNiO8
1.5546999999999995,La-Mg-Ni-O,4,La4MgNiO8
0.0,La-Mg-O-Ti,4,La4MgTi3O12
0.0,La-Mg-O-Ti,4,La4MgTi4O10
1.0386999999999995,Cu-La-Mn-S,4,La4Mn(Cu3S5)2
0.1649000000000002,La-Mn-Ni-O,4,La4Mn(NiO4)3
0.0928000000000004,La-Mn-Ni-O,4,La4Mn3NiO12
0.0,La-Mn-Sb,3,La4Mn3Sb8
1.0118,La-Mn-O-Si,4,La4Mn5(Si2O11)2
0.0,Co-La-Mn-O-Pb,5,La4Mn5Co(PbO9)2
0.0,Co-La-Nb-O,4,La4Nb(CoO4)3
0.4551999999999996,La-Nd-O-S,4,La4Nd4S4O7
0.0,La-Ni,2,La4Ni
0.0,La-Mo-Ni-O,4,La4Ni3MoO12
0.0,La-Ni-O,3,La4Ni3O10
0.0,La-Ni-O,3,La4Ni3O8
0.0,La-Ni-Pb,3,La4Ni3Pb4
0.0,La-Ni-Sn,3,La4Ni3Sn8
0.0,La-Ni-O-W,4,La4Ni3WO12
0.7965,La-Ni-O,3,La4NiO8
0.0,La-Os,2,La4Os
0.0,La-O-Os,3,La4Os6O19
0.0,La-Pb,2,La4Pb3
0.4523000000000001,La-O-Pd,3,La4PdO7
0.0,Co-La-P-Pr,4,La4Pr(CoP)10
0.0,La-Pt,2,La4Pt
0.9892000000000004,La-O-Pt,3,La4PtO7
0.0,La-Ni-O-Re,4,La4Re(NiO4)3
0.0,La-O-Re,3,La4Re6O19
0.0,La-Rh,2,La4Rh
0.0,La-Rh,2,La4Rh3
0.0,La-Ru,2,La4Ru
0.0,La-O-Ru,3,La4Ru6O19
1.1943,La-N-S,3,La4S3N2
0.0,La-S,2,La4S7
0.0,La-Pb-Sb,3,La4Sb2Pb
0.0,La-Sb,2,La4Sb3
0.0,La-Sb-Te,3,La4SbTe7
1.6576999999999993,La-N-Se,3,La4Se3N2
1.3261000000000005,La-O-Se,3,La4Se3O4
0.1580999999999992,La-S-Se,3,La4Se7S
0.0,I-La-Si,3,La4SiI5
0.0,Ag-Co-La-O-Sm,5,La4Sm4Co7AgO24
0.0,Co-Cu-La-O-Sm,5,La4Sm4Co7CuO24
0.0,La-Mn-O-Sm,4,La4SmMn5O15
0.0,Bi-La-Sn,3,La4SnBi2
0.0,La-Sb-Sn,3,La4SnSb2
2.918399999999999,La-O-Ti,3,La4Ti3O12
1.873,La-O-Ti,3,La4Ti3O12
0.0,La-O-Si-Ti,4,La4Ti5(Si2O11)2
0.0,La-Mn-O-Pb-Ti,5,La4TiMn5(PbO9)2
0.3557999999999994,La-O-Si-V,4,La4V5(Si2O11)2
0.0,C-La-Y,3,La4YC10
0.0,Cu-La-O-Rh-Zn,5,La4ZnCu(RhO6)2
0.0,B-La-N,3,La5(BN3)2
0.0,La-Mo-O,3,La5(MoO4)4
1.5947000000000005,Ag-La-S,3,La5AgS8
1.4229000000000005,Ag-La-Se,3,La5AgSe8
0.0059000000000004,Al-La-Ru,3,La5Al2Ru3
0.0,B-La-Rh,3,La5B4Rh15
0.0185000000000004,Co-La-O-Re,4,La5CoRe3O16
0.4155000000000006,As-Cl-Cu-La-O,5,La5Cu4As4(ClO2)2
0.0,Cl-Cu-La-O-P,5,La5Cu4P4(ClO2)2
0.0,Cu-La-O,3,La5Cu5O13
0.0,Cu-Dy-La-O,4,La5Dy3(CuO4)4
0.0,Er-Ge-La,3,La5Er5Ge6
0.0,Ge-La,2,La5Ge3
0.0,Ge-La-O,3,La5Ge3O
0.0,In-La-Ni,3,La5In11Ni6
0.0,Ir-La,2,La5Ir2
0.0,La-Mg,2,La5Mg
0.0,Cl-Cu-La-Mg-O-P,6,La5MgCu4P4(ClO2)2
0.0941999999999998,La-Mg-O-Re,4,La5MgRe3O16
0.0,La-Mn-O,3,La5Mn5O18
0.0,Co-La-Mn-O-Pb,5,La5Mn7Co(PbO8)3
0.0,La-Mn-O-Os,4,La5MnOs3O16
0.0,La-Ru,2,La5Ru2
0.0,La-S,2,La5S8
0.0,La-Si,2,La5Si3
0.0,Co-Cu-La-O-Sm,5,La5Sm3Co7CuO24
1.9061000000000003,Cr-Fe-La-O-Sm,5,La5Sm3Cr6(FeO12)2
2.1331999999999995,Cr-Fe-La-O-Sm,5,La5Sm3Cr7FeO24
2.0817000000000005,Cr-La-O-Sm,4,La5Sm3Cr8O24
0.0,Ag-La-Ni-O-Sm,5,La5Sm3Ni7AgO24
0.9265000000000008,Cr-La-O-Sm-V,5,La5Sm3V2Cr6O24
1.2457999999999991,Cr-La-O-Sm-V,5,La5Sm3VCr7O24
0.0,La-S-Sm,3,La5SmS8
1.3953999999999995,La-S-Tl,3,La5TlS8
1.3003999999999998,La-Se-Tl,3,La5TlSe8
1.0812999999999997,La-Te-Tl,3,La5TlTe8
0.0,Al-La-Ni-Ru-Sn,5,La6Al3Ni4SnRu
0.0,Cu-La-O,3,La6Cu6O17
2.752300000000001,La-Mg-O-W,4,La6MgWO12
2.0916,La-Mg-O-W,4,La6MgWO12
0.0,Ag-Co-La-O-Sm,5,La6Sm2Co7AgO24
0.8646000000000003,Cr-Fe-La-O-Sm,5,La6Sm2Cr3Fe5O24
1.5518,Cr-Fe-La-O-Sm,5,La6Sm2Cr5(FeO8)3
0.9662999999999996,Cr-La-O-Sm-V,5,La6Sm2V3Cr5O24
0.9385000000000004,Cr-La-O-Sm-V,5,La6Sm2V5Cr3O24
1.9728000000000003,La-O-U,3,La6UO12
3.2132,La-O-W,3,La6WO12
0.0,La-Pd-Zn,3,La6Zn4Pd13
0.0,Cu-La-Zn,3,La6ZnCu
0.0,Fe-La-O,3,La7(FeO8)2
0.0,La-Mn-O,3,La7Mn8O23
0.0,La-Mn-O,3,La7Mn8O24
0.0,La-Ni,2,La7Ni16
0.0,C-La-Os,3,La7Os4C9
2.5344999999999995,Al-La-O-Sc,4,La7ScAl8O24
0.8335999999999997,Fe-La-O-Sm,4,La7Sm(FeO3)8
0.0,Co-Cu-La-O-Sm,5,La7SmCo5(CuO8)3
0.0,Ag-Co-La-O-Sm,5,La7SmCo6(AgO12)2
0.0,Co-Cu-La-O-Sm,5,La7SmCo6(CuO12)2
0.8693,Cr-Fe-La-O-Sm,5,La7SmCr2(FeO4)6
0.8649000000000004,Cr-Fe-La-O-Sm,5,La7SmCrFe7O24
0.0,Fe-La-Mn-O-Sm,5,La7SmMn2(FeO4)6
0.0,Fe-La-Mn-O-Sm,5,La7SmMn3Fe5O24
0.0,Fe-La-Mn-O-Sm,5,La7SmMn4(FeO6)4
0.0,Fe-La-Mn-O-Sm,5,La7SmMn5(FeO8)3
0.0,Fe-La-Mn-O-Sm,5,La7SmMn6(FeO12)2
0.0,Cu-La-Mn-O-Sm,5,La7SmMn7CuO24
0.0,Fe-La-Mn-O-Sm,5,La7SmMn7FeO24
0.0,La-Mn-O-Sm,4,La7SmMn8O24
0.0,Fe-La-Mn-O-Sm,5,La7SmMnFe7O24
0.0,Ag-La-Ni-O-Sm,5,La7SmNi6(AgO12)2
0.0,La-O-Sm-Ti-V,5,La7SmTi2V6O24
0.0,La-O-Sm-Ti-V,5,La7SmTi3V5O24
0.0,La-O-Sm-Ti-V,5,La7SmTiV7O24
0.9669,Cr-La-O-Sm-V,5,La7SmV7CrO24
0.0,La-O-Sm-V,4,La7SmV8O24
3.6351,Al-La-O-Y,4,La7YAl8O24
0.0,Bi-La-Pb,3,La8(BiPb)3
0.0,Bi-La-Sb,3,La8(BiSb)3
3.5096,Al-B-La-O,4,La8Al7BO24
3.458,Al-Ga-La-O,4,La8Al7GaO24
3.3008000000000006,Al-In-La-O,4,La8Al7InO24
0.0,Cu-La-O,3,La8Cu3O16
0.0,Al-La-Mg-O,4,La8MgAl7O24
0.0,La-Mn-O,3,La8Mn7O24
0.0,La-Ni-O,3,La8Ni4O17
2.0662,La-O-Se-Te,4,La8Te3SeO8
0.6310999999999991,Er-La-O,3,La9ErO15
3.8646,Er-La-O,3,La9ErO15
0.0,Er-La-O,3,La9ErO15
0.0,La-Ni-O,3,La9Ni5O19
0.0,La-Ni-O,3,La9Ni6O19
0.0,Ag-La,2,LaAg
2.5972000000000004,Ag-La-Mo-O,4,LaAg(MoO4)2
0.0,Ag-La,2,LaAg2
0.0,Ag-Hg-La,3,LaAg2Hg
0.0,Ag-La-Sn,3,LaAg2Sn
0.0,Ag-La,2,LaAg3
0.0,Ag-La,2,LaAg5
0.0,Ag-Au-La,3,LaAgAu2
0.0,Ag-Ge-La,3,LaAgGe
0.0,Ag-Hg-La,3,LaAgHg2
2.8267,Ag-La-O,3,LaAgO2
2.8013,Ag-La-O,3,LaAgO2
0.0,Ag-La-O,3,LaAgO3
0.0,Ag-La-Pb,3,LaAgPb
1.3631000000000002,Ag-La-O-S,4,LaAgSO
0.0,Ag-La-Sb,3,LaAgSb2
0.0,Ag-La-Sn,3,LaAgSn
0.0,Al-La,2,LaAl
0.0,Al-La,2,LaAl2
0.0,Ag-Al-La,3,LaAl2Ag3
0.0,Al-B-La-Os,4,LaAl2BOs2
0.0,Al-B-La-Ru,4,LaAl2BRu2
0.0,Al-Cu-La,3,LaAl2Cu3
0.0,Al-La-Pt,3,LaAl2Pt3
0.0,Al-La,2,LaAl3
0.0,Al-Au-La,3,LaAl3Au
0.0,Al-Cu-La,3,LaAl3Cu
0.0,Al-La-Ni,3,LaAl3Ni2
4.1928,Al-La-O,3,LaAl3O6
0.0,Al-La-Pd,3,LaAl3Pd2
0.0,Al-La,2,LaAl4
0.0,Al-Co-La,3,LaAl4Co
0.0,Al-Cu-La-Si,4,LaAl4Cu2Si
0.0,Al-La-Ni,3,LaAl5Ni2
0.0,Ag-Al-La,3,LaAlAg2
0.0,Al-Au-La,3,LaAlAu
0.0,Al-Co-La,3,LaAlCo4
0.0,Al-Cu-La,3,LaAlCu4
0.0,Al-Cu-La-Ni,4,LaAlCuNi3
0.0,Al-Ge-La,3,LaAlGe
2.4765,Al-H-La,3,LaAlH6
0.0,Al-La-Ni,3,LaAlNi
0.0,Al-La-Ni,3,LaAlNi4
3.7121,Al-La-O,3,LaAlO3
3.5192999999999994,Al-La-O,3,LaAlO3
0.0,Al-La-O,3,LaAlO3
4.0189,Al-La-O,3,LaAlO3
3.4924,Al-La-O,3,LaAlO3
3.378000000000001,Al-La-O,3,LaAlO3
4.276999999999999,Al-La-O,3,LaAlO3
4.4362,Al-La-O,3,LaAlO3
4.1704,Al-La-O,3,LaAlO3
4.270499999999999,Al-La-O,3,LaAlO3
0.0,Al-La-Pt,3,LaAlPt
0.0,Al-La-Si,3,LaAlSi
0.0,Al-La-Si,3,LaAlSi2
0.0,Al-La-Zn,3,LaAlZn
0.0,As-La,2,LaAs
0.1840000000000001,As-La,2,LaAs2
0.0,As-Au-La,3,LaAs2Au
0.0,As-La,2,LaAs3
0.0,As-Ir-La,3,LaAsIr
2.693,As-La-O,3,LaAsO3
3.7988,As-La-O,3,LaAsO4
4.0025,As-La-O,3,LaAsO4
1.9309000000000005,Cr-Li-O-Sb,4,Li2Cr3SbO8
1.9814,Cr-Li-O-Si,4,Li2Cr3Si3O10
0.7856999999999998,Cr-Li-O-Sn,4,Li2Cr3SnO8
0.9602999999999996,Cr-Li-O-Sn,4,Li2Cr3SnO8
0.0,Cr-Li-O-Sn,4,Li2Cr3SnO8
0.0,Cr-Li-O-Te,4,Li2Cr3TeO8
2.137,Cr-Li-O-W,4,Li2Cr3WO8
1.8534,Cr-Li-O-W,4,Li2Cr3WO8
2.5834,Cr-Li-O-P,4,Li2Cr5(PO4)4
2.027200000000001,Cr-Li-O-P,4,Li2Cr5(PO4)4
0.0,Cr-Li-O-Si,4,Li2Cr5(Si2O7)2
1.2860999999999998,B-Cr-Li-O,4,Li2Cr5B3O13
0.5017999999999998,Cl-Cr-Li,3,Li2CrCl4
0.3302,Cl-Cr-Li,3,Li2CrCl4
0.6561999999999992,Co-Cr-Li-O-P,5,Li2CrCo(PO4)2
0.0,Co-Cr-Li-O,4,Li2CrCo3O8
0.665,Co-Cr-Li-O,4,Li2CrCoO4
0.0106999999999999,Co-Cr-Li-O,4,Li2CrCoO4
0.0,Co-Cr-Li-O,4,Li2CrCoO4
0.6296000000000004,Co-Cr-Li-O,4,Li2CrCoO4
0.4045000000000005,Co-Cr-Li-O,4,Li2CrCoO4
0.0539999999999993,Cr-Cu-Li-O-P,5,Li2CrCu(PO4)2
0.5853000000000002,Cr-Cu-F-Li,4,Li2CrCuF6
0.0,Cr-Cu-Li-O,4,Li2CrCuO4
1.6057,Cr-F-Li,3,Li2CrF4
1.6888,Cr-F-Li,3,Li2CrF6
1.2089,Cr-F-Li,3,Li2CrF6
2.5057,Cr-Fe-Li-O-P,5,Li2CrFe(PO4)2
2.2877,Cr-Fe-Li-O-P,5,Li2CrFe(PO4)2
0.0,Cr-Fe-Li-O,4,Li2CrFe3O8
0.0,As-Cr-Fe-Li,4,Li2CrFeAs2
1.6024000000000005,Cr-Fe-Li-O,4,Li2CrFeO4
1.4331,Cr-Fe-Li-O,4,Li2CrFeO4
1.6730000000000005,Cr-Fe-Li-O,4,Li2CrFeO4
1.6805999999999996,Cr-Fe-Li-O,4,Li2CrFeO4
1.2734,Cr-Fe-Li-O,4,Li2CrFeO4
1.7254999999999998,Cr-Fe-Li-O,4,Li2CrFeO4
1.4044000000000003,Cr-Fe-Li-O,4,Li2CrFeO4
1.7314999999999996,Cr-Fe-Li-O,4,Li2CrFeO4
1.6727,Cr-Fe-Li-O,4,Li2CrFeO4
1.6771999999999996,Cr-Fe-Li-O,4,Li2CrFeO4
1.4074000000000004,Cr-Fe-Li-O,4,Li2CrFeO4
1.6659000000000002,Cr-Fe-Li-O,4,Li2CrFeO4
0.0,Cr-Li-N,3,Li2CrN2
1.7405,Cr-Li-Ni-O-P,5,Li2CrNi(PO4)2
0.0,Cr-Li-Ni-O,4,Li2CrNiO4
1.014,Cr-Li-O,3,Li2CrO2
1.1213,Cr-Li-O,3,Li2CrO2
1.6403,Cr-Li-O,3,Li2CrO2
2.5093,Cr-Li-O,3,Li2CrO2
0.9845999999999996,Cr-Li-O,3,Li2CrO2
1.4981,Cr-Li-O,3,Li2CrO2
1.4700000000000002,Cr-Li-O,3,Li2CrO2
1.0792000000000002,Cr-Li-O,3,Li2CrO3
0.7612000000000001,Cr-Li-O,3,Li2CrO3
0.0,Cr-Li-O,3,Li2CrO3
1.7417,Cr-Li-O,3,Li2CrO3
1.12,Cr-Li-O,3,Li2CrO3
0.2326000000000001,Cr-Li-O,3,Li2CrO3
0.2332,Cr-Li-O,3,Li2CrO3
0.2322999999999999,Cr-Li-O,3,Li2CrO3
2.502,Cr-Li-O,3,Li2CrO4
2.6674,Cr-Li-O,3,Li2CrO4
2.6527,Cr-Li-O,3,Li2CrO4
0.0,Cr-Li-O-P,4,Li2CrP2O7
3.7041,Cr-Li-O-P,4,Li2CrP2O7
3.4910000000000005,Cr-Li-O-P,4,Li2CrP2O7
1.9725,Cr-Li-O-P,4,Li2CrP2O7
3.1186,Cr-Li-O-P,4,Li2CrP2O7
2.6484,Cr-Li-O-P,4,Li2CrP3O10
2.4368,Cr-H-Li-O-P,5,Li2CrPHO5
2.0493,Cr-F-Li-O-P,5,Li2CrPO4F
2.8006,Cr-F-Li-O-P,5,Li2CrPO4F
2.0187,Cr-F-Li-O-P,5,Li2CrPO4F
0.8508,Cr-Li-O-P,4,Li2CrPO6
0.0,Cr-Li-S,3,Li2CrS3
0.0,Cr-Li-S,3,Li2CrS4
3.1126000000000005,Cr-Li-O-Si,4,Li2CrSi3O8
0.6668000000000001,Cr-Li-O-Si,4,Li2CrSi4O11
0.5257999999999998,Cr-Li-O-Si,4,Li2CrSi4O11
0.0,Cr-Li-O-Si,4,Li2CrSi7O16
2.2089,Cr-Li-O-Si,4,Li2CrSi7O16
1.0747000000000004,Cr-Li-O-Si,4,Li2CrSiO4
3.0789,Cr-Li-O-Si,4,Li2CrSiO4
1.1657000000000002,Cr-Li-O-Si,4,Li2CrSiO4
1.2517,Cr-Li-O-Si,4,Li2CrSiO4
1.7395999999999998,Cr-Li-O-Si,4,Li2CrSiO4
1.3058999999999994,Cr-Li-O-Si,4,Li2CrSiO4
1.5289,Cr-Li-O-Si,4,Li2CrSiO4
2.0592,Cr-Li-O-P-Sn,5,Li2CrSn(PO4)2
0.0,Cr-Li-O-Te,4,Li2CrTeO6
0.5032000000000001,Cr-Li-O-W,4,Li2CrWO6
0.0,Cu-H-Li-O,4,Li2Cu(HO)4
0.6202000000000001,Cu-Li-O-P,4,Li2Cu(PO3)4
0.8002999999999998,Cu-Li-O-P,4,Li2Cu(PO3)4
0.2115,Cu-Li-O-P,4,Li2Cu(PO3)4
0.869,Cu-Li-O-P,4,Li2Cu(PO3)4
0.0,Cu-Li-O-P,4,Li2Cu(PO3)4
0.7930999999999999,Cu-Li-O-Si,4,Li2Cu(Si2O5)2
0.0871999999999997,Cu-Li-O-Si,4,Li2Cu(SiO3)2
0.4236999999999997,Cu-Li-O-W,4,Li2Cu(WO4)2
0.0,Cu-Li-O-S,4,Li2Cu2(SO4)3
0.0,Cu-F-Li,3,Li2Cu2F5
0.0732999999999999,Cu-F-Li,3,Li2Cu2F5
0.0054,Cu-F-Li,3,Li2Cu2F7
0.0322,Cu-F-Li,3,Li2Cu2F7
0.0,Cu-F-Li,3,Li2Cu2F7
0.0,Cu-Li-O-P,4,Li2Cu2P4O13
0.0,Cu-Li-S,3,Li2Cu2S3
0.0,Cu-Li-O-Si,4,Li2Cu2Si4O11
0.4739,Cu-Li-O-Si,4,Li2Cu2Si5O13
0.2637,Cu-Li-O-Si,4,Li2Cu2Si8O19
0.0,Cu-Li-O-Si,4,Li2Cu2Si8O19
0.0,Cu-Li-O-Te,4,Li2Cu2TeO6
0.0,C-Cu-Li-O,4,Li2Cu3(CO3)3
0.0584999999999999,C-Cu-Li-O,4,Li2Cu3(CO3)3
0.0,Cu-F-Li,3,Li2Cu3F11
0.0,Cu-F-Li,3,Li2Cu3F7
0.0,Cu-F-Li,3,Li2Cu3F8
0.1153999999999999,Cu-F-Li,3,Li2Cu3F8
0.2996999999999999,Cu-F-Li,3,Li2Cu3F8
0.414,Cu-F-Li,3,Li2Cu3F9
0.0,Cu-F-Li,3,Li2Cu3F9
0.0,Cu-Ge-Li,3,Li2Cu3Ge
0.1163999999999996,Cu-Li-S,3,Li2Cu4S3
0.6691000000000003,Cu-Li-S,3,Li2Cu4S3
0.1269999999999997,Cu-Li-S,3,Li2Cu4S3
0.0,Cu-Li-O-P,4,Li2Cu5(PO4)4
0.2186000000000003,Cu-Li-O-Si,4,Li2Cu5(Si2O7)2
0.0,Cu-F-Li,3,Li2Cu5F12
0.0,Cu-F-Li,3,Li2Cu7F16
0.0,As-Cu-Li,3,Li2CuAs
0.1206999999999999,As-C-Cu-Li-O,5,Li2CuAsCO7
0.6339000000000001,As-Cu-F-Li,4,Li2CuAsF6
0.9085,As-Cu-Li-O,4,Li2CuAsO4
1.0013,As-Cu-Li-O,4,Li2CuAsO4
0.0,Au-Cu-F-Li,4,Li2CuAuF6
0.9895,B-Cu-Li-O-Pb,5,Li2CuB4(PbO5)2
0.2921000000000004,Bi-Cu-Li-O-P,5,Li2CuBi(PO4)2
0.0,Bi-Cu-Li-O,4,Li2CuBiO4
0.0691999999999999,C-Cu-Li-O,4,Li2CuCO4
0.1280999999999998,C-Cu-Li-O-S,5,Li2CuCSO7
0.0,Cu-F-Li,3,Li2CuF4
0.3313999999999999,Cu-F-Li,3,Li2CuF4
0.3253999999999999,Cu-F-Li,3,Li2CuF4
0.975,Cu-F-Li,3,Li2CuF4
0.0,Cu-F-Li,3,Li2CuF5
6.3228,Cu-F-Li,3,Li2CuF5
0.1197000000000001,Cu-F-Li,3,Li2CuF5
0.5961000000000003,Cu-F-Li,3,Li2CuF5
0.0,Cu-F-Li,3,Li2CuF6
0.0,Cu-Ge-Li,3,Li2CuGe
0.7389999999999999,Cu-F-Ir-Li,4,Li2CuIrF6
0.0,Cu-F-Li-Mo,4,Li2CuMoF6
0.3239999999999998,Cu-Li-N,3,Li2CuN
0.0,Cu-Li-Ni-O-P,5,Li2CuNi(PO4)2
0.0,Cu-F-Li-Ni,4,Li2CuNiF6
0.0,Cu-Li-Ni-O,4,Li2CuNiO4
0.6578999999999999,Cu-Li-O,3,Li2CuO2
0.0,Cu-Li-O,3,Li2CuO2
0.0,Cu-Li-P,3,Li2CuP
0.0,Cu-Li-O-P,4,Li2CuP2O7
0.4907999999999997,Cu-Li-O-P,4,Li2CuP2O7
1.6397,Cu-H-Li-O-P,5,Li2CuP3(HO5)2
0.0,C-Cu-Li-O-P,5,Li2CuPCO7
1.7827000000000002,Cu-Li-O-P,4,Li2CuPO4
1.3886000000000005,Cu-Li-O-P,4,Li2CuPO4
1.2059999999999995,Cu-Li-O-P,4,Li2CuPO4
1.4867000000000004,Cu-Li-O-P,4,Li2CuPO4
1.6655999999999995,Cu-Li-O-P,4,Li2CuPO4
1.9750000000000003,Cu-Li-O-P,4,Li2CuPO4
1.1851000000000005,Cu-Li-O-P,4,Li2CuPO4
0.9028999999999998,Cu-Li-O-P,4,Li2CuPO4
1.5054000000000003,Cu-Li-O-P,4,Li2CuPO4
0.9052000000000008,Cu-Li-O-P,4,Li2CuPO4
1.8063,Cu-Li-O-P,4,Li2CuPO4
0.9036999999999996,Cu-Li-O-P,4,Li2CuPO4
0.6029999999999998,Cu-Li-O-P,4,Li2CuPO4
0.9082999999999996,Cu-Li-O-P,4,Li2CuPO4
1.327,Cu-Li-O-P,4,Li2CuPO4
0.9029999999999996,Cu-Li-O-P,4,Li2CuPO4
0.0,Cu-Li-S,3,Li2CuS2
0.4535,Cu-Li-Sb,3,Li2CuSb
0.8771999999999993,Cu-Li-O-P-Sb,5,Li2CuSb(PO4)2
0.6312000000000002,Cl-Cu-Li-Sb,4,Li2CuSbCl6
0.367,Cu-F-Li-Sb,4,Li2CuSbF6
0.0,Cu-Li-O-Sb,4,Li2CuSbO5
0.0,Cu-Li-O-Si,4,Li2CuSiO4
0.1415000000000001,Cu-Li-O-Si,4,Li2CuSiO4
0.0378999999999998,Cu-Li-O-Si,4,Li2CuSiO4
0.0,Cu-Li-Sn,3,Li2CuSn
0.0,Cu-Li-Sn,3,Li2CuSn2
0.0,Cu-Li-O-Sn,4,Li2CuSnO4
0.0,Dy-In-Li,3,Li2DyIn
4.784800000000001,C-Dy-Li-O-P,5,Li2DyPCO7
0.0,Dy-Li-Tl,3,Li2DyTl
0.0,Er-In-Li,3,Li2ErIn
4.8579,C-Er-Li-O-P,5,Li2ErPCO7
0.0,Er-Li-Tl,3,Li2ErTl
0.0,Eu-Li-O,3,Li2Eu5O8
0.0,Eu-Ge-Li,3,Li2EuGe
0.2021000000000001,Eu-Ge-Li-S,4,Li2EuGeS4
0.0,Eu-In-Li,3,Li2EuIn
0.0433000000000003,Eu-Li-O-Si,4,Li2EuSiO4
0.0,Eu-Li-Sn,3,Li2EuSn
0.0,B-Fe-Li-O,4,Li2Fe(BO3)2
4.114199999999999,C-Fe-Li-O,4,Li2Fe(CO3)2
3.4101,C-Fe-Li-O,4,Li2Fe(CO3)2
3.515000000000001,C-Fe-Li-O,4,Li2Fe(CO3)2
3.9379,C-Fe-Li-O,4,Li2Fe(CO3)2
1.025,Co-Fe-Li-O,4,Li2Fe(CoO3)2
0.9249,Co-Fe-Li-O,4,Li2Fe(CoO3)2
0.5655000000000001,Co-Fe-Li-O,4,Li2Fe(CoO3)2
0.6487999999999998,Co-Fe-Li-O,4,Li2Fe(CoO3)2
0.9612,Co-Fe-Li-O,4,Li2Fe(CoO3)2
0.6593,Co-Fe-Li-O,4,Li2Fe(CoO3)2
0.0,Co-Fe-Li-O,4,Li2Fe(CoO3)2
0.0,Cu-Fe-Li-O,4,Li2Fe(CuO3)2
0.0,Fe-Li-Ni-O,4,Li2Fe(NiO3)2
3.9524,Fe-Li-O-P,4,Li2Fe(PO3)4
4.3505,Fe-Li-O-P,4,Li2Fe(PO3)4
4.245900000000001,Fe-Li-O-P,4,Li2Fe(PO3)4
0.0,Fe-Li-O-P,4,Li2Fe(PO3)8
0.0,Fe-Li-O-P,4,Li2Fe(PO4)2
0.0,Fe-Li-P-S,4,Li2Fe(PS3)2
4.2848,Fe-Li-O-S,4,Li2Fe(SO4)2
3.3375,Fe-Li-O-Si,4,Li2Fe(Si2O5)2
3.2217,Fe-Li-O-Si,4,Li2Fe(SiO3)2
3.3925,Fe-Li-O-Si,4,Li2Fe(SiO3)2
3.35,Fe-Li-O-W,4,Li2Fe(WO4)2
3.5503,Fe-Li-O-W,4,Li2Fe(WO4)2
0.0,Fe-Li-P,3,Li2Fe12P7
3.9898,C-Fe-Li-O,4,Li2Fe2(CO3)3
3.5757,C-Fe-Li-O,4,Li2Fe2(CO3)3
3.4539,C-Fe-Li-O,4,Li2Fe2(CO3)3
3.7322,C-Fe-Li-O,4,Li2Fe2(CO3)3
3.4756,C-Fe-Li-O,4,Li2Fe2(CO3)3
2.9344,C-Fe-Li-O,4,Li2Fe2(CO3)3
0.0,Fe-Li-O-P,4,Li2Fe2(PO4)3
4.2958,Fe-Li-O-S,4,Li2Fe2(SO4)3
0.0,Co-Fe-Li-O,4,Li2Fe2Co3O10
0.1105,Co-Fe-Li-O,4,Li2Fe2CoO6
0.1000000000000005,Cu-Fe-Li-O-P,5,Li2Fe2Cu(PO4)3
0.0,Cu-Fe-Li-O,4,Li2Fe2CuO6
1.4032,Fe-Li-Ni-O-P,5,Li2Fe2Ni(PO4)3
0.0,Fe-Li-Ni-O,4,Li2Fe2NiO6
2.2497,F-Fe-Li-O,4,Li2Fe2OF4
2.0287,F-Fe-Li-O,4,Li2Fe2OF6
0.0060999999999999,F-Fe-Li-O-P,5,Li2Fe2P2O9F
0.0,Fe-H-Li-O-P,5,Li2Fe2P4H3O16
0.0,Fe-Li-S,3,Li2Fe2S3
0.6865999999999999,Fe-Li-O-Sb,4,Li2Fe2SbO6
3.4796,Fe-Li-O-Si,4,Li2Fe2Si2O7
3.5586,Fe-Li-O-Si,4,Li2Fe2Si2O7
2.9152,Fe-Li-O-Si,4,Li2Fe2Si2O7
3.1288000000000005,Fe-Li-O-Si,4,Li2Fe2Si2O7
2.3253,Fe-Li-O-Si,4,Li2Fe2Si3O10
3.4646,Fe-Li-O-Si,4,Li2Fe2Si4O11
3.4827000000000004,Fe-Li-O-Si,4,Li2Fe2Si4O11
2.0829000000000004,Fe-Li-O-Si,4,Li2Fe2Si4O11
0.0,Fe-Li-O-Si,4,Li2Fe2Si4O11
3.2863,Fe-Li-O-Si,4,Li2Fe2Si8O19
3.0361,Fe-Li-O-Si,4,Li2Fe2Si8O19
3.5081000000000007,Fe-Li-O-Si,4,Li2Fe2Si8O19
2.1580000000000004,Fe-Li-O-Si,4,Li2Fe2SiO6
1.6914000000000002,Fe-Li-O-Sn,4,Li2Fe2SnO6
0.5566,B-Fe-Li-O,4,Li2Fe3(BO3)3
0.0,Co-Fe-Li-O,4,Li2Fe3(CoO4)3
3.4650000000000003,Fe-Li-O-P,4,Li2Fe3(P2O7)2
1.0999,Fe-Li-O-P,4,Li2Fe3(PO4)3
0.0,Bi-Fe-Li-O,4,Li2Fe3BiO8
0.0,Co-Fe-Li-O,4,Li2Fe3Co5O16
0.0,Co-Fe-Li-O,4,Li2Fe3Co7O20
0.0,Co-Fe-Li-O,4,Li2Fe3CoO8
0.0,Cu-Fe-Li-O,4,Li2Fe3CuO8
3.3957,F-Fe-Li,3,Li2Fe3F8
1.7819,F-Fe-Li,3,Li2Fe3F8
3.1268,F-Fe-Li,3,Li2Fe3F8
3.2535,F-Fe-Li,3,Li2Fe3F8
3.6141,F-Fe-Li,3,Li2Fe3F8
3.0509000000000004,F-Fe-Li,3,Li2Fe3F8
3.2095,F-Fe-Li,3,Li2Fe3F8
0.0,Fe-Li-Ni-O,4,Li2Fe3NiO8
0.0,Fe-Li-O,3,Li2Fe3O10
1.7338,F-Fe-Li-O,4,Li2Fe3O3F5
1.9365,Fe-Li-O,3,Li2Fe3O4
2.4363,Fe-Li-O-P,4,Li2Fe3P9O28
0.0,Fe-Li-S,3,Li2Fe3S4
1.3362000000000005,Fe-Li-O-Sb,4,Li2Fe3SbO8
1.4002,Fe-Li-O-Sb,4,Li2Fe3SbO8
3.0276000000000005,Fe-Li-O-Si,4,Li2Fe3Si3O10
0.0,Fe-Li-O-Sn,4,Li2Fe3SnO8
0.2279999999999997,Fe-Li-O-Sn,4,Li2Fe3SnO8
0.1697000000000001,Fe-Li-O-Sn,4,Li2Fe3SnO8
0.1095000000000001,Fe-Li-O-Sn,4,Li2Fe3SnO8
1.3885999999999998,Fe-Li-O-Te,4,Li2Fe3TeO8
0.8479000000000001,Fe-Li-O-Te,4,Li2Fe3TeO8
0.6734999999999998,Fe-Li-O-Te,4,Li2Fe3TeO8
0.0,Fe-Li-O-Te,4,Li2Fe3TeO8
0.0678,Fe-Li-O-Te,4,Li2Fe3TeO8
1.6318,Fe-Li-O-W,4,Li2Fe3WO8
0.0,Fe-Li-O-W,4,Li2Fe3WO8
1.9451,F-Fe-Li-O,4,Li2Fe4O3F8
0.0,F-Fe-Li-O,4,Li2Fe4O3F8
1.3199999999999998,Fe-Li-O,3,Li2Fe4O7
2.2071,F-Fe-Li-O,4,Li2Fe4OF8
3.0936000000000003,F-Fe-Li-O,4,Li2Fe4OF8
3.5628,Fe-Li-O-P,4,Li2Fe5(PO4)4
0.0,Fe-Li-O-P,4,Li2Fe5(PO4)4
2.8575000000000004,Fe-Li-O-Si,4,Li2Fe5(Si2O7)2
0.0,Fe-Li-O-Si,4,Li2Fe5(Si2O7)2
1.4087,B-Fe-Li-O,4,Li2Fe5B3O13
1.1635,F-Fe-Li-O,4,Li2Fe5O5F7
1.8341000000000005,Fe-Li-O-Si,4,Li2Fe5Si5O16
1.5286000000000002,Ag-F-Fe-Li,4,Li2FeAgF6
0.2979,As-B-Fe-Li-O,5,Li2FeBAsO7
2.778,B-Fe-Li-O,4,Li2FeBO4
1.9082,B-Fe-Li-O,4,Li2FeBO4
2.8278,B-Fe-Li-O,4,Li2FeBO4
1.1006,B-Fe-Li-O,4,Li2FeBO4
2.1735,B-Fe-Li-O,4,Li2FeBO4
2.4480000000000004,B-Fe-Li-O,4,Li2FeBO4
2.3452,B-Fe-Li-O,4,Li2FeBO4
2.1685,B-Fe-Li-O,4,Li2FeBO4
1.9172,B-Fe-Li-O,4,Li2FeBO4
2.1638,B-Fe-Li-O,4,Li2FeBO4
2.4344,B-Fe-Li-O,4,Li2FeBO4
0.0,B-Fe-Li-O-P,5,Li2FeBPO7
0.0,Br-Fe-Li,3,Li2FeBr4
0.0290999999999999,Br-Fe-Li,3,Li2FeBr4
2.3439,C-Fe-Li-O,4,Li2FeCO4
0.0326999999999999,C-Fe-Li-O,4,Li2FeCO5
3.9163,C-Fe-Li-O-S,5,Li2FeCSO7
0.2667000000000001,Cl-Fe-Li,3,Li2FeCl4
0.7058,Co-Fe-Li-O,4,Li2FeCo3O8
0.0,Co-Fe-Li-O,4,Li2FeCo3O8
0.4954999999999998,Co-Fe-Li-O,4,Li2FeCo3O8
0.4296999999999999,Co-Fe-Li-O,4,Li2FeCo3O8
0.0081999999999999,Co-Fe-Li-O,4,Li2FeCo9O20
0.0,Co-Fe-Li-O,4,Li2FeCoO4
0.5278999999999998,Co-Fe-Li-O,4,Li2FeCoO4
0.8265999999999996,Co-Fe-Li-O,4,Li2FeCoO4
0.282,Co-Fe-Li-O,4,Li2FeCoO4
0.0,C-Cu-Fe-Li-N,5,Li2FeCu(CN)6
0.0,Cu-Fe-Li-O-P,5,Li2FeCu(PO4)2
0.0,Cu-Fe-Li-O,4,Li2FeCuO4
3.2415,F-Fe-Li,3,Li2FeF4
3.8539,F-Fe-Li,3,Li2FeF4
3.6837,F-Fe-Li,3,Li2FeF4
3.3475,F-Fe-Li,3,Li2FeF4
0.0,F-Fe-Li,3,Li2FeF4
3.5017,F-Fe-Li,3,Li2FeF4
3.3952,F-Fe-Li,3,Li2FeF4
3.6802,F-Fe-Li,3,Li2FeF4
3.6637,F-Fe-Li,3,Li2FeF4
3.833,F-Fe-Li,3,Li2FeF4
3.2673,F-Fe-Li,3,Li2FeF4
3.478,F-Fe-Li,3,Li2FeF4
3.0891,F-Fe-Li,3,Li2FeF4
3.3292,F-Fe-Li,3,Li2FeF4
4.8828,F-Fe-Li,3,Li2FeF4
3.3033,F-Fe-Li,3,Li2FeF4
3.5932,F-Fe-Li,3,Li2FeF4
4.6607,F-Fe-Li,3,Li2FeF4
0.0364999999999999,F-Fe-Li,3,Li2FeF5
3.4609,F-Fe-Li,3,Li2FeF5
3.7173,F-Fe-Li,3,Li2FeF5
3.1132,F-Fe-Li,3,Li2FeF5
3.8394,F-Fe-Li,3,Li2FeF5
1.6833,F-Fe-Li,3,Li2FeF5
2.7262000000000004,F-Fe-Li,3,Li2FeF5
3.66,F-Fe-Li,3,Li2FeF5
3.4141000000000004,F-Fe-Li,3,Li2FeF5
0.3128999999999999,F-Fe-Li,3,Li2FeF6
0.0,F-Fe-Li,3,Li2FeF6
0.1775000000000002,F-Fe-Li,3,Li2FeF6
2.1565,Fe-Ge-Li-O,4,Li2FeGeO4
0.0,Fe-Ge-Li-S,4,Li2FeGeS4
4.236700000000001,Fe-H-Li-O-S,5,Li2FeH4(SO5)2
0.0,F-Fe-Hg-Li,4,Li2FeHgF6
0.0,Fe-Li-N,3,Li2FeN
3.0236,Fe-Li-Ni-O-P,5,Li2FeNi(PO4)2
0.0,Fe-Li-Ni-O,4,Li2FeNi3O8
0.0,Fe-Li-Ni-O,4,Li2FeNiO4
3.1408000000000005,Fe-Li-O,3,Li2FeO2
3.0405999999999995,Fe-Li-O,3,Li2FeO2
2.2850999999999995,Fe-Li-O,3,Li2FeO2
1.7893,Fe-Li-O,3,Li2FeO2
1.6678,F-Fe-Li-O,4,Li2FeO2F
1.4225000000000003,F-Fe-Li-O,4,Li2FeO2F
2.1313000000000004,F-Fe-Li-O,4,Li2FeO2F
1.6863,F-Fe-Li-O,4,Li2FeO2F
1.6758000000000002,F-Fe-Li-O,4,Li2FeO2F
1.9849,F-Fe-Li-O,4,Li2FeO2F
1.3967999999999998,F-Fe-Li-O,4,Li2FeO2F
1.9398,F-Fe-Li-O,4,Li2FeO2F