eg,chemsys,nelements,formula
4.8864,Be-F-Tl,3,Be2TlF5
0.0,Be-V,2,Be2V
0.0,Be-W,2,Be2W
0.0,Be-Zn,2,Be2Zn
4.0566,As-Be-H-O,4,Be3As2(H2O5)2
0.0,Be-Co,2,Be3Co
0.0,Be-Cu,2,Be3Cu
0.0,Be-Fe,2,Be3Fe
0.0,Be-Ge,2,Be3Ge
0.0,Be-Ir,2,Be3Ir
3.943999999999999,Be-N,2,Be3N2
2.7644,Be-N,2,Be3N2
3.3145000000000007,Be-N,2,Be3N2
3.3284,Be-N,2,Be3N2
0.0,Be-Nb,2,Be3Nb
0.0,Be-Ni,2,Be3Ni
0.2102000000000004,Be-P,2,Be3P2
5.8582,Be-H-O-P,4,Be3P2(H2O5)2
0.0,Be-Pd,2,Be3Pd
0.0,Be-Rh,2,Be3Rh
0.0,Be-Ru,2,Be3Ru
0.0,Be-Ru,2,Be3Ru2
0.0,Be-S,2,Be3S
0.0,Be-Si,2,Be3Si
0.4385,Be-O-Si,3,Be3SiO6
0.0,Be-Tc,2,Be3Tc
4.2643,Be-O-Zn,3,Be3ZnO4
2.7906,Be-S-Zn,3,Be3ZnS4
0.0,Be-Ir,2,Be46Ir7
0.0,Be-Os,2,Be46Os7
0.0,Be-Rh,2,Be46Rh7
0.0,Be-Ru,2,Be46Ru7
0.0,Al-Be-Cr,3,Be4AlCr
0.0,Al-Be-Cu,3,Be4AlCu
0.0,Al-Be-Fe,3,Be4AlFe
0.0,Al-Be-Ni,3,Be4AlNi
0.0,B-Be,2,Be4B
0.0,B-Be,2,Be4B25
0.0,Be-Co-Ge,3,Be4CoGe
0.0,Be-Cr-Mo,3,Be4CrMo
0.0,Be-Cu-Ge,3,Be4CuGe
0.0,Be-Cu-Si,3,Be4CuSi
0.0,Be-Fe-Ge,3,Be4FeGe
0.0,Be-Cu-In,3,Be4InCu
0.0,Be-Mo-Nb,3,Be4NbMo
0.0,Be-Ge-Ni,3,Be4NiGe
5.7425,Be-H-O-Si,4,Be4Si2H2O9
0.2690000000000001,Be-O-Si,3,Be4Si2O9
0.0,Be-O-Si,3,Be4Si2O9
0.0,Be-Ni-Si,3,Be4SiNi
1.2806999999999995,Be-O-Te,3,Be4TeO7
0.0,Al-Be-Fe,3,Be5(Al2Fe)2
0.0,Au-Be,2,Be5Au
0.0,Be-Co,2,Be5Co
0.0,Be-Fe,2,Be5Fe
0.0,Be-Pd,2,Be5Pd
0.0952999999999999,Be-Pt,2,Be5Pt
0.0,Be-Cr-Nb,3,Be8NbCr3
0.0,Be-Ru,2,Be8Ru
0.0,Ag-Be,2,BeAg3
0.0,Ag-Be,2,BeAg4
0.0,Ag-Be-O,3,BeAgO3
6.117700000000001,Al-Be-O,3,BeAl2O4
0.0,Al-Be,2,BeAl3
0.0,Al-B-Be,3,BeAlB
2.4698,Al-Be-H,3,BeAlH5
3.3021000000000003,Al-Be-H,3,BeAlH5
0.0,Al-Be-Ir,3,BeAlIr2
0.0,Al-Be-Rh,3,BeAlRh2
4.976799999999999,Al-Be-H-O-Si,5,BeAlSiHO5
5.0289,Al-Be-N-Si,4,BeAlSiN3
0.4247999999999998,Al-Be-O-Si,4,BeAlSiO5
0.0,As-Be-O,3,BeAsO5
0.0,As-Be-Ru,3,BeAsRu2
0.0,Au-Be,2,BeAu
0.0,Au-Be,2,BeAu2
0.0,Au-Be,2,BeAu3
0.0,Au-Be-O,3,BeAuO3
0.0,B-Be,2,BeB2
0.0,B-Be-O,3,BeBO3
0.0,Be-Bi-O,3,BeBiO3
0.0,Be-Bi-Os,3,BeBiOs2
5.180400000000001,Be-Br,2,BeBr2
1.2256999999999998,Be-C,2,BeC2
3.2247,Be-C,2,BeC2
5.5087,Be-C-N,3,BeCN2
3.8512999999999993,Be-C-N,3,BeCN2
0.0,Be-Cd-O,3,BeCdO3
6.5805,Be-Cl,2,BeCl2
6.3359000000000005,Be-Cl,2,BeCl2
0.0,Be-Cl-O,3,BeClO
0.0,Be-Co,2,BeCo
0.2488000000000001,B-Be-Co,3,BeCo2B
0.0,Be-Co-Ge,3,BeCo2Ge
0.0,Be-Co-P,3,BeCo2P
0.0,Be-Co-Si,3,BeCo2Si
2.8371000000000004,Be-Cr-O,3,BeCr2O4
0.0,Be-Cr,2,BeCr3
0.0,Be-Cr-Fe,3,BeCrFe2
2.1141,Be-Cr-O,3,BeCrO4
1.6855,Be-Cr-O,3,BeCrO4
1.7039,Be-Cr-O,3,BeCrO4
0.0,Be-Cr-Ru,3,BeCrRu2
0.0,Be-Cu,2,BeCu
0.0769999999999999,Be-Br-Cu,3,BeCuBr
0.0,Be-Cu-O,3,BeCuO3
0.0,Be-Cu-F-O,4,BeCuO5F4
0.3711,Be-Cu-F-O,4,BeCuO5F4
6.2666,Be-F,2,BeF2
8.3235,Be-F,2,BeF2
8.0867,Be-F,2,BeF2
6.8003,Be-F,2,BeF2
0.0,Be-F,2,BeF2
0.0312000000000001,Be-F,2,BeF4
0.0,Be-Fe-P,3,BeFe2P
0.0,Be-Fe-Si,3,BeFe2Si
0.0,Be-Fe,2,BeFe3
0.0,Be-Fe-Rh,3,BeFeRh2
0.0,Be-Ga,2,BeGa3
0.0,Be-Co-Ga,3,BeGaCo2
0.0,Be-Ga-Ir,3,BeGaIr2
0.0,Be-Ga-O,3,BeGaO3
0.0,Be-Ga-Rh,3,BeGaRh2
0.0,Be-Ge-Te,3,BeGe2Te
0.0,Be-Ge,2,BeGe3
0.4035999999999995,As-Be-Ge,3,BeGeAs2
0.0,B-Be-Ge,3,BeGeB
3.3941,Be-Ge-N,3,BeGeN2
0.0,Be-Ge-O,3,BeGeO3
0.9023000000000004,Be-Ge-P,3,BeGeP2
0.0,Be-Ge-Ru,3,BeGeRu2
0.0,Be-H,2,BeH
5.3844,Be-H,2,BeH2
4.8312,Be-H-O-Se,4,BeH2SeO4
6.287599999999999,Be-F-H-N,4,BeH4NF3
6.3782,Be-F-H-N,4,BeH4NF3
0.0,Be-H-O-S,4,BeH4SO4
5.8694,Be-F-H-N,4,BeH6(NF)2
7.2812,Be-F-H-N,4,BeH6(NF2)2
6.6477,Be-F-H-N,4,BeH8(NF2)2
3.491,Be-H-N-O,4,BeH8(NO5)2
5.2146,Be-H-O-S,4,BeH8SO8
5.5871,Be-H-O-S,4,BeH8SO8
0.0,Be-Hg-O,3,BeHgO3
3.6032,Be-I,2,BeI2
0.0,Be-In,2,BeIn3
0.0,Be-Bi-In,3,BeInBi
0.0,Be-In-O,3,BeInO3
0.0,Be-In-Si,3,BeInSi2
0.0,Be-Mo,2,BeMo3
1.7006,Be-F-N,3,BeNF3
0.0,Be-F-N,3,BeNF3
0.0,Be-Nb,2,BeNb4
0.0,Be-Nb-Ru,3,BeNbRu2
0.0,Be-Ni,2,BeNi
0.0,Be-Ni,2,BeNi3
6.847700000000001,Be-O,2,BeO
8.1681,Be-O,2,BeO
7.463900000000001,Be-O,2,BeO
7.0846,Be-O,2,BeO
0.0,Be-O,2,BeO2
3.237,Be-O,2,BeO2
0.0,Be-O-Os,3,BeOsO3
0.0,Be-P,2,BeP2
0.3944000000000001,Be-P,2,BeP2
5.4114,Be-H-O-P,4,BePH3O5
0.0,Be-H-N-O-P,5,BePH4NO4
0.0,Be-N-O-P,4,BePNO4
0.0,Be-O-P,3,BePO4
0.0,Be-Pb,2,BePb3
5.4214,Be-F-Pb,3,BePbF4
5.3377,Be-F-Pb,3,BePbF4
0.0,Be-O-Pb,3,BePbO3
0.0,Be-Pd,2,BePd
0.0,Be-Pd,2,BePd2
0.0,Be-Pd,2,BePd3
0.0,Be-O-Pd,3,BePdO3
0.0,Be-O-Pt,3,BePtO3
0.0,B-Be-Re,3,BeReB
0.0,Be-O-Re,3,BeReO3
0.0,Be-Rh,2,BeRh
0.0,Be-Ru-W,3,BeRu2W
0.0,Be-Ru,2,BeRu3
3.1453,Be-S,2,BeS
6.9502,Be-O-S,3,BeSO4
0.0,Be-O-S,3,BeSO8
0.0466999999999999,Be-O-S,3,BeSO8
0.0,As-Be-Sb,3,BeSbAs2
0.0,Be-O-Sb,3,BeSbO3
0.4488000000000003,Be-Se,2,BeSe
0.0,Be-Se,2,BeSe
2.6636999999999995,Be-Se,2,BeSe
1.0226000000000006,As-Be-Si,3,BeSiAs2
0.0,Be-Ir-Si,3,BeSiIr2
2.8722000000000003,Be-N-Si,3,BeSiN2
3.5618,Be-N-Si,3,BeSiN2
5.1459,Be-N-Si,3,BeSiN2
0.0,Be-Ni-Si,3,BeSiNi2
0.2690999999999999,Be-O-Si,3,BeSiO3
0.0,Be-Os-Si,3,BeSiOs2
0.0,Be-P-Si,3,BeSiP2
0.8007,Be-P-Si,3,BeSiP2
0.0,Be-Rh-Si,3,BeSiRh2
0.0,Be-Ru-Si,3,BeSiRu2
0.6936999999999998,As-Be-Sn,3,BeSnAs2
0.9223000000000008,Be-P-Sn,3,BeSnP2
0.0,Be-Se-Tc,3,BeTcSe
2.2711999999999994,Be-Te,2,BeTe
2.0173,Be-Te,2,BeTe
4.4906,Be-F-Tl,3,BeTl2F4
3.6851,As-Be-O-Tl,4,BeTlAsO4
4.0851,Be-O-P-Tl,4,BeTlPO4
0.0,Be-Co-V,3,BeVCo2
0.0,Be-Fe-V,3,BeVFe2
0.0,Be-O-V,3,BeVO3
0.0,Be-Os-V,3,BeVOs2
0.0,Be-Ru-V,3,BeVRu2
0.0,Be-Cl-W,3,BeW2Cl
0.0,Be-Zn,2,BeZn13
1.5432,Be-O-Zn,3,BeZn3O4
2.9164,Be-S-Zn,3,BeZn3S4
2.806,Be-O-Zn,3,BeZnO2
0.0,Be-O-Zn,3,BeZnO3
2.9402,Be-S-Zn,3,BeZnS2
0.0,Bi,1,Bi
3.8655,B-Bi-O,3,Bi(BO2)3
3.8438,B-Bi-O,3,Bi(BO2)3
3.858599999999999,B-Bi-O,3,Bi(BO2)3
3.9576,B-Bi-O,3,Bi(BO2)3
3.4257,B-Bi-O,3,Bi(BO2)3
0.0,Bi-C-O,3,Bi(CO2)3
0.0,Bi-Mo-S,3,Bi(Mo3S4)2
1.0116999999999998,Bi-Mo-O,3,Bi(MoO5)2
0.0,Bi-Mo-O,3,Bi(MoO5)2
0.0,Bi-O-P,3,Bi(PO3)4
0.0,Bi-O-Pd,3,Bi(PdO2)2
0.1459999999999999,Bi-Sb-Te,3,Bi(SbTe2)3
0.2587999999999999,Bi-Sb-Te,3,Bi(SbTe2)3
0.0,Bi-O-W,3,Bi(WO4)2
0.1901999999999999,Bi-O-W,3,Bi(WO4)2
0.0,Bi-Mo,2,Bi10Mo3
0.0,B-Bi-O,3,Bi2(BO3)3
1.9812,Bi-C-N,3,Bi2(CN2)3
1.5671000000000002,Bi-C-N,3,Bi2(CN2)3
4.177,Bi-O-S,3,Bi2(SO4)3
0.0,Au-Bi-O,3,Bi2AuO5
0.5085999999999999,B-Bi-O,3,Bi2B2O7
0.0,B-Bi-O,3,Bi2B2O7
0.9454,B-Bi-O,3,Bi2B2O7
0.0,B-Bi-O,3,Bi2BO5
0.0,Bi-Br-O,3,Bi2Br2O
2.3465,Bi-Br-Cl-O,4,Bi2BrClO2
1.0710999999999995,Bi-C-O,3,Bi2CO5
2.04,Bi-C-O,3,Bi2CO5
2.1533000000000007,Bi-C-O,3,Bi2CO5
0.0,Bi-Cl-O,3,Bi2Cl2O
0.0,Bi-I-O,3,Bi2I2O
0.0,Bi-Ir,2,Bi2Ir
0.0,Bi-Ir-O,3,Bi2Ir2O7
1.8751999999999995,Bi-Mo-O,3,Bi2MoO6
0.5192999999999994,Bi-Mo-O,3,Bi2MoO6
0.8686000000000007,Bi-Mo-O,3,Bi2MoO6
0.2555,Bi-N-O,3,Bi2NO6
0.1002999999999998,Bi-O,2,Bi2O3
1.1218000000000004,Bi-O,2,Bi2O3
0.6115999999999997,Bi-O,2,Bi2O3
0.0,Bi-O,2,Bi2O3
2.4257,Bi-O,2,Bi2O3
1.4874999999999998,Bi-O,2,Bi2O3
2.0782000000000007,Bi-O,2,Bi2O3
2.5813999999999995,Bi-O,2,Bi2O3
1.4737,Bi-O,2,Bi2O3
1.7487000000000004,Bi-O,2,Bi2O3
1.6582000000000003,Bi-O,2,Bi2O3
2.1945,Bi-O,2,Bi2O3
1.6863,Bi-O,2,Bi2O3
2.277,Bi-O,2,Bi2O3
0.8820999999999994,Bi-O,2,Bi2O3
0.6235999999999997,Bi-O,2,Bi2O3
0.9627999999999995,Bi-O,2,Bi2O3
1.3046000000000006,Bi-O,2,Bi2O3
0.0,Bi-O,2,Bi2O5
0.0,Bi-F-O,3,Bi2OF2
3.7885,Bi-F-O,3,Bi2OF4
0.0,Bi-O-Os,3,Bi2Os2O7
0.0,Au-Bi-Os,3,Bi2OsAu
0.0,Bi-O-P,3,Bi2PO6
0.4120999999999997,Bi-Pb-Se,3,Bi2Pb2Se5
4.4481,Bi-F-Pb,3,Bi2Pb3F12
3.6843,Bi-F-Pb,3,Bi2PbF8
0.4549000000000003,Bi-Pb-Se,3,Bi2PbSe4
0.0,Bi-Pd,2,Bi2Pd
0.0,Bi-O-Pd-Pt,4,Bi2Pd3PtO8
0.0,Bi-Pd-S,3,Bi2Pd3S2
0.0,Bi-Pd-Se,3,Bi2Pd3Se2
0.0,Bi-Pd,2,Bi2Pd5
0.4981999999999997,Bi-O-Pd,3,Bi2PdO4
0.0,Bi-O-Pd,3,Bi2PdO4
0.0,Bi-Pd-Pt,3,Bi2PdPt
0.0,Bi-Pt,2,Bi2Pt
0.7805,Bi-O-Pt,3,Bi2Pt2O7
0.0,Bi-Pt-Se,3,Bi2Pt3Se2
0.0,Bi-Rh,2,Bi2Rh
0.0,Bi-O-Rh,3,Bi2Rh2O7
0.0,Bi-Rh-S,3,Bi2Rh3S2
0.0,Bi-O-Ru,3,Bi2Ru2O7
0.0,Bi-S,2,Bi2S
0.9401000000000002,Bi-O-S,3,Bi2S2O
0.8266,Bi-O-S,3,Bi2SO2
0.3521999999999998,Bi-Sb-Se-Te,4,Bi2Sb2(TeSe)3
0.0,Bi-Sb-Te,3,Bi2Sb2Te3
0.0,Bi-Se,2,Bi2Se
0.963,Bi-O-Se,3,Bi2Se2O
0.0,Bi-Se,2,Bi2Se3
0.3769,Bi-Se,2,Bi2Se3
3.2263,Bi-O-Se,3,Bi2Se3O10
0.3686999999999996,Bi-O-Se,3,Bi2SeO2
0.0,Bi-O-Se,3,Bi2SeO2
0.6426999999999996,Bi-O-Se,3,Bi2SeO6
0.0,Bi-Te,2,Bi2Te
0.4676999999999998,Bi-O-Te,3,Bi2Te2O
0.141,Bi-S-Te,3,Bi2Te2S
0.7519,Bi-S-Te,3,Bi2Te2S
0.4367999999999998,Bi-S-Te,3,Bi2Te2S
0.0790000000000001,Bi-S-Te,3,Bi2Te2S
0.5441999999999996,Bi-Se-Te,3,Bi2Te2Se
3.1462000000000003,Bi-O-Se-Te,4,Bi2Te2SeO10
2.8648,Bi-O-Te-W,4,Bi2Te2WO10
0.4617,Bi-Te,2,Bi2Te3
0.3388,Bi-Te,2,Bi2Te3
0.0,Bi-Te,2,Bi2Te3
0.1735000000000006,Bi-Pb-Te,3,Bi2Te4Pb
0.4945000000000004,Bi-Pb-Te,3,Bi2Te4Pb
0.0,Bi-Pb-Te,3,Bi2Te5Pb2
0.1682000000000005,Bi-I-Te,3,Bi2TeI
0.0,Bi-O-Te,3,Bi2TeO2
1.2592999999999996,Bi-O-Te,3,Bi2TeO6
0.4376999999999995,Bi-Se-Te,3,Bi2TeSe2
0.9267000000000004,Bi-Se-Te,3,Bi2TeSe2
1.909,Bi-O-W,3,Bi2WO6
1.6037,Bi-O-W,3,Bi2WO6
2.4007000000000005,Bi-O-W,3,Bi2WO6
0.4814999999999998,Bi-O-W,3,Bi2WO8
0.2380000000000002,Bi-O-W,3,Bi2WO8
0.0,As-Bi-O,3,Bi3(AsO5)2
0.0182999999999999,B-Bi-O,3,Bi3(B3O7)2
0.0,Bi-O-P,3,Bi3(PO5)2
0.0168999999999996,Bi-O-P,3,Bi3(PO5)2
0.0,As-Bi,2,Bi3As
0.0,Au-Bi,2,Bi3Au
0.9257999999999996,Bi-Br-O,3,Bi3BrO4
2.3069999999999995,Bi-Cl-O,3,Bi3ClO4
0.0,Bi-Ir-O,3,Bi3IrO2
0.0,Bi-Mo,2,Bi3Mo
0.0,Bi-O,2,Bi3O2
2.3098,Bi-F-O,3,Bi3O4F
1.8834000000000004,Bi-F-O,3,Bi3O4F
2.1425,Bi-F-O,3,Bi3O4F
1.7972,Bi-F-O,3,Bi3O4F
2.0613,Bi-F-O,3,Bi3O4F
0.0,Bi-O,2,Bi3O5
0.0,Bi-P,2,Bi3P
0.5358999999999998,Bi-O-P,3,Bi3P3O14
2.0623,Bi-O-P,3,Bi3P3O14
0.0,Bi-Pb,2,Bi3Pb
0.7507000000000001,Bi-Cl-O-Pb-W,5,Bi3PbWClO8
1.0783999999999994,Bi-Cl-O-Pb-W,5,Bi3PbWClO8
0.0,Bi-Pb-Pd,3,Bi3Pd12Pb
0.0,Bi-Pd,2,Bi3Pd5
0.0,Bi-Pb-Pt,3,Bi3Pt2Pb
0.0,Bi-Rh,2,Bi3Rh
0.0,Bi-Sb,2,Bi3Sb
1.4041999999999994,Bi-O-Sb-W,4,Bi3Sb(WO6)2
1.3765999999999998,Bi-O-Pb-Sb,4,Bi3Sb5Pb4O21
0.0,Ca-Cu-O,3,Ca2Cu2O5
0.6280000000000001,Ca-Cu-O,3,Ca2Cu2O5
0.0,Ca-Cu-P,3,Ca2Cu6P5
0.0,Ca-Cu-O,3,Ca2Cu9O13
0.0,Ag-Ca-Cu,3,Ca2CuAg
0.7334,As-Ca-Cu-H-O,5,Ca2CuAs2(H2O5)2
0.3101,B-Ca-Cu-H-O,5,Ca2CuB2(HO)12
0.0,C-Ca-Cu-N-O,5,Ca2CuC(NO)2
0.0,C-Ca-Cu-O,4,Ca2CuCO5
0.0,Ca-Cu-Ir-O,4,Ca2CuIrO6
0.1177000000000001,Ca-Cu-N,3,Ca2CuN2
0.0,Ca-Cu-O,3,Ca2CuO3
0.0,Ca-Cu-Rh,3,Ca2CuRh
0.0,Ca-Cu-O-Rh,4,Ca2CuRhO6
0.0,Ca-Cu-O-S,4,Ca2CuSO2
0.3431999999999999,Ca-Cu-O-Sb,4,Ca2CuSbO6
0.5422000000000002,Ca-Cl-Cu-O-Te,5,Ca2CuTe4(ClO5)2
0.0,Ca-Cu-O-W,4,Ca2CuWO6
0.0,Ca-Dy-Mn-O,4,Ca2DyMnO6
3.1986000000000003,Ca-Dy-O-Sb,4,Ca2DySbO6
0.0,Ca-Cu-Eu-O,4,Ca2Eu(CuO3)2
0.0,Ca-Eu-Ni-Zn,4,Ca2Eu(Zn3Ni2)3
0.0,Ca-Eu-Ge-In,4,Ca2Eu2In3Ge4
0.0,Be-Ca-Eu-O,4,Ca2EuBeO5
0.0,Ca-F,2,Ca2F
0.0,Ca-Fe-O-P,4,Ca2Fe(PO6)2
0.0,Ca-Fe-O,3,Ca2Fe2O5
0.4751000000000003,Ca-Fe-O,3,Ca2Fe2O5
0.5681999999999996,Ca-Fe-O,3,Ca2Fe2O5
0.8630999999999998,Ca-Fe-O,3,Ca2Fe2O5
0.5600999999999998,Ca-Fe-O,3,Ca2Fe2O5
0.0,Ca-Fe-O,3,Ca2Fe3O8
0.2755000000000001,Ca-Fe-O,3,Ca2Fe3O8
0.0130999999999996,Ca-Fe-O,3,Ca2Fe3O8
1.8767,Ca-Fe-O-P-Sb,5,Ca2Fe3Sb(PO4)6
0.2748999999999997,Ca-Fe-O,3,Ca2Fe7O11
0.0,Ca-Fe-O,3,Ca2Fe9O13
0.0,As-Ca-F-Fe,4,Ca2FeAs2F
0.4893,Bi-Ca-Fe-O,4,Ca2FeBiO6
0.5775000000000001,Ca-Cl-Fe-O,4,Ca2FeClO3
0.0,Ca-Cl-Fe-O,4,Ca2FeClO8
0.6759999999999993,Ca-Cu-Fe-O-S,5,Ca2FeCuSO3
1.5002999999999995,Ca-Fe-H,3,Ca2FeH6
0.0,Ca-Fe-Ir-O,4,Ca2FeIrO6
1.1193000000000004,Ca-Fe-Mo-O,4,Ca2FeMoO6
0.0,Ca-Fe-N,3,Ca2FeN2
0.0,Ca-Fe-O-Os,4,Ca2FeOsO6
4.408200000000001,Ca-Fe-H-O-P,5,Ca2FeP2(H2O5)2
0.0,Ca-Fe-O-Re,4,Ca2FeReO6
0.0,Ca-Fe-O-Rh,4,Ca2FeRhO6
1.4953,Ca-Fe-O-Sb,4,Ca2FeSbO6
2.1517,Ca-Fe-O-Sb,4,Ca2FeSbO6
1.9888000000000003,Ca-Fe-O-W,4,Ca2FeWO6
3.0012000000000003,Ca-Fe-O-W,4,Ca2FeWO6
0.0,Ca-Fe-O-W,4,Ca2FeWO6
2.7594,Ca-Fe-O-W,4,Ca2FeWO6
1.0382999999999996,Ca-Fe-O-W,4,Ca2FeWO6
0.5676000000000005,Ca-Fe-O-W,4,Ca2FeWO6
3.1220000000000003,Ca-Ga-Ge-O,4,Ca2Ga2GeO7
0.0,Ca-Ga-O,3,Ca2Ga2O5
0.0,Ca-Ga-H-O-Si,5,Ca2Ga2Si(HO4)2
3.5092,Ca-Ga-H-O-Si,5,Ca2Ga2Si(HO4)2
3.5382,Ca-Ga-H-O-Si,5,Ca2Ga2Si(HO4)2
3.5592,Ca-Ga-O-Si,4,Ca2Ga2SiO7
0.0,Ag-Ca-Ga,3,Ca2Ga7Ag
0.0,Au-Ca-Ga,3,Ca2Ga7Au
0.0,Ag-Ca-Ga,3,Ca2GaAg
0.0,Bi-Ca-Ga-O,4,Ca2GaBiO6
0.0,Ca-Cl-Ga-O,4,Ca2GaClO8
0.0,Ca-Cu-Ga,3,Ca2GaCu2
0.1896999999999997,Ca-Fe-Ga-O,4,Ca2GaFeO5
0.0,Ca-Ga-Hg,3,Ca2GaHg
0.0,Ca-Ga-Pd,3,Ca2GaPd2
0.0,Ca-Ga-Pt,3,Ca2GaPt2
0.0,Ca-Ga-Si,3,Ca2GaSi
0.1945999999999994,Ca-Ga-O-Si,4,Ca2GaSi2O7
0.0,Ca-Ga-Sn,3,Ca2GaSn
1.6446,Ca-Gd-Mn-Ni-O,5,Ca2Gd2MnNiO8
3.8144,Ca-Gd-O-Sb,4,Ca2GdSbO6
3.5954,Ca-Gd-O-Ta,4,Ca2GdTaO6
0.5756000000000001,Ca-Ge,2,Ca2Ge
0.2999,Ca-Ge,2,Ca2Ge
3.5628,Ca-Ge-O,3,Ca2GeO4
2.8982,Ca-Ge-O,3,Ca2GeO4
3.6002,Ca-Ge-O,3,Ca2GeO4
0.0,Ca-Ge-Pd,3,Ca2GePd2
0.0,Ca-Ge-Pd,3,Ca2GePd3
0.0,Ca-Ge-Pt,3,Ca2GePt2
1.5364999999999998,Br-Ca-H,3,Ca2H3Br
2.7001,Ca-H-Os,3,Ca2H6Os
2.4473,Ca-H-Ru,3,Ca2H6Ru
0.0,Br-Ca-H,3,Ca2HBr2
0.0,Ca-Cl-H,3,Ca2HCl2
0.0,Ca-H-I,3,Ca2HI2
1.6356000000000002,Ca-H-N,3,Ca2HN
4.3048,Ca-Hf-O,3,Ca2Hf7O16
0.0,Ca-Hf-Nb-O,4,Ca2HfNbO6
0.0,Ca-Hf-O,3,Ca2HfO4
3.841,Ca-Hf-O,3,Ca2HfO4
3.5477000000000003,Ca-Hf-O-Sn,4,Ca2HfSnO6
2.4866,Ca-Hf-O-Ti,4,Ca2HfTiO6
3.4088000000000003,Ca-Hf-O-Zr,4,Ca2HfZrO6
0.0,Ca-Hg,2,Ca2Hg
0.0,Bi-Ca-Hg,3,Ca2HgBi
0.0127999999999999,Ca-Ge-Hg,3,Ca2HgGe
0.0,Ca-Hg-Pb,3,Ca2HgPb
3.2513,Ca-F-Ho,3,Ca2HoF7
0.0,Bi-Ca-Ho-Mn-O,5,Ca2HoMn4BiO12
4.0547,Ca-Ho-O-Ta,4,Ca2HoTaO6
2.3485,Ca-I-N,3,Ca2IN
0.0,Ca-In,2,Ca2In
0.0,Ca-Cu-In,3,Ca2In3Cu
0.0,Ca-Hg-In,3,Ca2InHg
0.0,Ca-In-N,3,Ca2InN
0.1694999999999993,Ca-In-O-Os,4,Ca2InOsO6
0.0,Ca-In-Pb,3,Ca2InPb
0.0,Ca-In-Pd,3,Ca2InPd2
0.0,Ca-In-Pt,3,Ca2InPt2
1.4198000000000004,Ca-In-O-Sb,4,Ca2InSbO6
0.0,Ca-Ir-N,3,Ca2IrN3
0.0,Ca-Ir-O,3,Ca2IrO4
0.0,Ca-Ir-O-Pt,4,Ca2IrPtO6
0.0,Ca-Ir-O-Rh,4,Ca2IrRhO6
1.1277,Ca-Ir-O-W,4,Ca2IrWO6
0.0,Ca-Cu-La-O,4,Ca2La2Cu3O8
2.0742000000000003,Ca-La-Mg-O-Ti,5,Ca2La2MgTi3O12
2.014900000000001,Ca-La-Mg-O-Ti,5,Ca2La2MgTi3O12
0.0,Ca-Cu-La-O-Ti,5,Ca2La2Ti3CuO12
0.0,Ag-Ca-Cu-La-O,5,Ca2La3Cu4AgO12
2.3161,Ca-La-O-Ti,4,Ca2La4Ti5O18
0.0,Ca-La-Mn-Ni-O,5,Ca2La5Mn7NiO24
0.0,Be-Ca-La-O,4,Ca2LaBeO5
5.7899,Ca-F-La,3,Ca2LaF7
1.7441000000000004,Ca-Fe-Ga-La-O,5,Ca2LaGa(FeO4)2
0.0,Ca-Cu-Ga-La-O,5,Ca2LaGaCu2O7
0.0,Ca-La-Mn-O,4,Ca2LaMn2O7
0.8753000000000002,Ca-La-Mn-O,4,Ca2LaMn2O7
0.3076000000000007,Ca-La-Mn-Nd-O,5,Ca2LaNdMn4O12
0.4834999999999994,Ca-La-O-Ru,4,Ca2LaRuO6
0.4284999999999996,Ca-La-O-Ru,4,Ca2LaRuO6
3.486,Ca-La-O-Sb,4,Ca2LaSbO6
3.7082000000000006,Ca-La-O-Sb,4,Ca2LaSbO6
2.9168000000000003,Ca-La-O-Sb,4,Ca2LaSbO6
2.9805,Ca-La-O-Sb,4,Ca2LaSbO6
4.0074000000000005,Ca-La-O-Ta,4,Ca2LaTaO6
0.0,Ca-Mg,2,Ca2Mg
0.4273999999999998,Ca-Mg,2,Ca2Mg
0.9785,As-Ca-Mg-O,4,Ca2Mg(AsO5)2
4.588900000000001,C-Ca-Mg-O,4,Ca2Mg(CO3)3
0.7141,Ca-Mg-O-P,4,Ca2Mg(PO5)2
0.0,Ca-Mg-Si,3,Ca2Mg3Si
0.0173,Ca-Mg-O-Si,4,Ca2Mg5(SiO3)8
4.8269,Ca-H-Mg-O-Si,5,Ca2Mg5Si8(HO12)2
5.0192000000000005,Ca-F-Mg-O-Si,5,Ca2Mg5Si8(O11F)2
0.0,Ag-Ca-Mg,3,Ca2MgAg3
4.839600000000001,Al-Ca-Mg-O-Si,5,Ca2MgAl2(SiO4)3
4.887700000000001,Al-Ca-Mg-O-Si,5,Ca2MgAl2(SiO4)3
3.856,As-Ca-H-Mg-O,5,Ca2MgAs2(H2O5)2
0.0,Ca-Cd-Mg,3,Ca2MgCd
3.8774,C-Ca-Fe-Mg-O,5,Ca2MgFe(CO3)4
3.5451,Ca-Fe-Mg-O-Si,5,Ca2MgFe(SiO3)4
0.0,Ca-In-Mg,3,Ca2MgIn
0.0,Ca-Mg-N,3,Ca2MgN2
1.3316999999999997,Ca-Mg-N,3,Ca2MgN2
5.3863,Ca-H-Mg-O-P,5,Ca2MgP2(H2O5)2
0.0,Ca-Mg-Pd,3,Ca2MgPd2
0.0,Ca-Mg-Pt,3,Ca2MgPt2
0.0,Ca-Mg-O-Re,4,Ca2MgReO6
4.467700000000001,Ca-Mg-O-Si,4,Ca2MgSi2O7
4.233700000000001,Ca-Mg-O-Si,4,Ca2MgSi2O7
0.0,Ca-Mg-Tl,3,Ca2MgTl
3.646,Ca-Mg-O-W,4,Ca2MgWO6
0.5097,As-Ca-Mn-O,4,Ca2Mn(AsO5)2
0.2117,Ca-Mn-O-P,4,Ca2Mn(PO5)2
0.0,Ca-Mn-O,3,Ca2Mn2O5
0.1667999999999998,Ca-Mn-O,3,Ca2Mn2O5
0.1820999999999997,Ca-Mn-O,3,Ca2Mn2O5
0.0742,Ca-H-Mn-O-Si,5,Ca2Mn2Si4H6O17
0.1684999999999998,Ca-H-Mn-O-Si,5,Ca2Mn2Si4H6O17
1.2933,Ca-H-Mn-O-Si,5,Ca2Mn2Si4H8O17
0.0,Ca-Mn-O-Si,4,Ca2Mn2Si4O17
0.8689999999999998,Ca-Mn-O,3,Ca2Mn3O8
1.2523,Ca-Mn-O,3,Ca2Mn3O8
0.0,Ca-Mn-O,3,Ca2Mn9O13
0.9432000000000004,Al-Ca-H-Mn-O-Si,6,Ca2MnAl2Si3HO13
0.0,Al-Ca-Mn-O-Si,5,Ca2MnAl2Si3O13
0.5726,Al-Ca-Mn-O,4,Ca2MnAlO5
0.0,Al-Ca-Mn-O,4,Ca2MnAlO5
2.2674,As-Ca-H-Mn-O,5,Ca2MnAs2(H2O5)2
0.1769,As-Ca-H-Mn-O,5,Ca2MnAs2(HO4)2
0.0,Ca-Fe-Mn-O,4,Ca2MnFeO5
0.7963,Ca-Ga-Mn-O,4,Ca2MnGaO5
0.0,Ca-Ga-Mn-O,4,Ca2MnGaO5
0.0,Ca-Ir-Mn-O,4,Ca2MnIrO6
0.0,Ca-Mn-N,3,Ca2MnN2
0.0,Ca-Mn-N,3,Ca2MnN3
2.5422,Ca-Mn-Nb-O,4,Ca2MnNb2O8
0.0,Ca-Mn-Nb-O,4,Ca2MnNbO6
0.0,Ca-Mn-Ni-O,4,Ca2MnNiO6
1.7783000000000002,Ca-Mn-O,3,Ca2MnO3
0.0,Ca-Mn-O,3,Ca2MnO4
4.1295,Ca-H-Mn-O-P,5,Ca2MnP2(H2O5)2
0.1472000000000006,Ca-Mn-O-Re,4,Ca2MnReO6
0.0,Ca-Mn-O-Ru,4,Ca2MnRuO6
0.8200000000000003,Ca-Mn-O-Sb,4,Ca2MnSbO6
1.4728999999999997,Ca-Mn-O-Sb,4,Ca2MnSbO6
0.0,Ca-Mn-O-Sb,4,Ca2MnSbO6
2.6623,Ca-Mn-O-W,4,Ca2MnWO6
2.5151000000000003,Ca-Mn-O-W,4,Ca2MnWO6
2.1846999999999994,Ca-Mn-O-W,4,Ca2MnWO6
0.8805999999999994,Ca-Mo-O,3,Ca2Mo2O5
1.6638000000000002,Ca-Mo-O,3,Ca2Mo3O8
0.3692999999999999,Ca-Mo-O,3,Ca2Mo3O8
0.0,Ca-Mo-N,3,Ca2MoN3
0.0,Ca-Mo-O,3,Ca2MoO5
1.9254000000000009,Ca-Mo-O-W,4,Ca2MoWO6
1.5816,Ca-Mo-O-W,4,Ca2MoWO6
0.0,Ca-N,2,Ca2N
2.371,Ca-Cl-N,3,Ca2NCl
1.9759,Ca-F-N,3,Ca2NF
1.6841,Ca-F-N,3,Ca2NF
0.0,Bi-Ca-Nb-O,4,Ca2Nb2BiO8
2.5639,Ca-Co-Nb-O,4,Ca2Nb2CoO8
1.6063999999999998,Ca-Cr-Nb-O,4,Ca2Nb2CrO8
0.2998000000000003,Ca-Cu-Nb-O,4,Ca2Nb2CuO8
2.4428,Ca-Fe-Nb-O,4,Ca2Nb2FeO8
0.0,Ca-Mo-Nb-O,4,Ca2Nb2MoO8
2.8118000000000003,Ca-Nb-Ni-O,4,Ca2Nb2NiO8
1.4400000000000004,Ca-Nb-O,3,Ca2Nb2O7
0.0,Ca-Nb-O-Sb,4,Ca2Nb2SbO8
2.1995,Ca-Nb-O-Sn,4,Ca2Nb2SnO8
0.0,Ca-Nb-O-W,4,Ca2Nb2WO8
0.0,Br-Ca-Cu-Nb-O,5,Ca2Nb3CuBrO10
2.7637000000000005,Ca-Cr-Nb-O,4,Ca2NbCrO6
2.0870999999999995,Ca-Fe-Nb-O,4,Ca2NbFeO6
3.4632,Ca-In-Nb-O,4,Ca2NbInO6
3.2524,Ca-In-Nb-O,4,Ca2NbInO6
1.7961,Ca-N-Nb,3,Ca2NbN3
0.0,Ca-F-Nb-O,4,Ca2NbO6F
0.0,Ca-Mn-Nd-Ni-O,5,Ca2Nd2MnNiO8
2.3155,Ca-Fe-Nb-Nd-O,5,Ca2Nd2Nb3FeO14
5.2616,Ca-F-Nd,3,Ca2NdF7
3.5065,Ca-Nb-Nd-O,4,Ca2NdNbO6
0.4992999999999998,Ca-Nd-O-Ru,4,Ca2NdRuO6
4.256600000000001,Ca-Nd-O-Ta,4,Ca2NdTaO6
0.0,Ca-H-Ni,3,Ca2Ni10H
0.0,As-Ca-Ni,3,Ca2Ni12As7
0.0,Ca-Ni-O,3,Ca2Ni2O5
3.2989,Ca-F-Ni-S,4,Ca2Ni2SF6
0.0,Ca-Ge-Ni,3,Ca2Ni3Ge2
0.4121999999999999,Ca-Ni-O,3,Ca2Ni3O8
0.9173999999999998,Ca-Ni-O,3,Ca2Ni3O8
0.0,Ca-Ni,2,Ca2Ni7
0.0,Ca-Ni-P,3,Ca2Ni7P4
0.0,Ca-Ni-O,3,Ca2Ni9O13
0.0,Bi-Ca-Ni-O,4,Ca2NiBiO6
0.0,Ca-Ir-Ni-O,4,Ca2NiIrO6
0.0,Ca-N-Ni,3,Ca2NiN2
0.0,Ca-Ni-O-Os,4,Ca2NiOsO6
0.0,Ca-Ni-O-Sb,4,Ca2NiSbO6
0.5975000000000001,Ca-Ni-O-W,4,Ca2NiWO6
2.9330000000000003,Ca-Ni-O-W,4,Ca2NiWO6
2.9269,Ca-Ni-O-W,4,Ca2NiWO6
0.0,Ca-O-Os,3,Ca2Os2O7
0.0,Ca-N-Os,3,Ca2OsN3
5.0576,Ca-H-O-P,4,Ca2P2H4O9
2.0712,Ca-H-N-O-P,5,Ca2P4H11NO18
0.0,Ca-Ir-P,3,Ca2P7Ir12
5.3771,Ca-Cl-O-P,4,Ca2PClO4
1.6997000000000004,Ca-I-P,3,Ca2PI
1.5958999999999994,Ca-I-P,3,Ca2PI
2.601800000000001,Ca-N-P,3,Ca2PN3
0.6495000000000002,Ca-Pb,2,Ca2Pb
0.0,Ca-Pb,2,Ca2Pb
0.0,Au-Ca-Pb,3,Ca2PbAu
0.0,Au-Ca-Pb,3,Ca2PbAu2
0.0,Ca-N-Pb,3,Ca2PbN2
0.6353,Ca-N-Pb,3,Ca2PbN2
1.4813,Ca-O-Pb,3,Ca2PbO4
0.0,Au-Ca-Pd,3,Ca2PdAu
0.0,Ca-N-Pd,3,Ca2PdN2
0.0,Ca-Pd-Pt,3,Ca2PdPt
0.0,Ca-O-Pd-W,4,Ca2PdWO6
1.3451999999999995,Ca-Mn-Ni-O-Pr,5,Ca2Pr2MnNiO8
1.3285999999999998,Ca-O-Pr,3,Ca2Pr2O5
0.0,Be-Ca-O-Pr,4,Ca2PrBeO5
0.0,Ca-Cu-Ga-O-Pr,5,Ca2PrGaCu2O7
0.0,Ca-O-Pr,3,Ca2PrO4
1.1236000000000002,Ca-O-Pt,3,Ca2Pt3O8
0.0,Au-Ca-Pt,3,Ca2PtAu
0.0,Ca-N-Re,3,Ca2ReN3
0.0,Ca-Rh,2,Ca2Rh
0.0,Ca-O-Ru,3,Ca2Ru2O7
0.0,Ca-N-Ru,3,Ca2RuN3
0.0,Ca-O-Ru,3,Ca2RuO4
0.0,Ca-Sb,2,Ca2Sb
1.5487000000000002,Ca-O-Sb,3,Ca2Sb2O5
0.0,Ca-O-Sb,3,Ca2Sb2O7
0.1916000000000002,Ca-O-Sb,3,Ca2Sb2O7
1.7433999999999998,Ca-O-Sb,3,Ca2Sb2O7
0.0,Ca-O-Sb,3,Ca2Sb3O8
0.0,Ca-Pd-Sb,3,Ca2Sb4Pd3
0.1936,Au-Ca-Sb,3,Ca2SbAu
0.4734999999999996,Ca-Mo-O-Sb,4,Ca2SbMoO6
1.2394999999999996,Ca-N-Sb,3,Ca2SbN3
2.1973,Ca-O-Sb-W,4,Ca2SbWO6
0.4763000000000001,Ca-O-Sb-W,4,Ca2SbWO6
1.4767,Ca-O-Sb-W,4,Ca2SbWO6
0.0,Ca-O-Sb-W,4,Ca2SbWO6
3.1457000000000006,Ca-Nb-O-Sc,4,Ca2ScNbO6
0.0,Ca-O-Os-Sc,4,Ca2ScOsO6
0.0,Ca-P-Pt-Sc,4,Ca2ScP3Pt7
0.0,Ca-O-Re-Sc,4,Ca2ScReO6
3.6318,Ca-O-Sb-Sc,4,Ca2ScSbO6
3.7338,Ca-O-Sc-Ta,4,Ca2ScTaO6
3.433,Ca-O-Se,3,Ca2Se3O8
0.5509000000000004,Ca-Si,2,Ca2Si
0.2915000000000001,Ca-Si,2,Ca2Si
0.0,Ag-Ca-Si,3,Ca2Si3Ag
0.0,Ca-Ni-Si,3,Ca2Si3Ni
0.0,Ca-O-Si,3,Ca2Si3O11
0.0138,Ca-O-Si,3,Ca2Si3O11
4.3821,Ca-O-Pb-Si,4,Ca2Si3PbO9
3.344899999999999,Ca-N-Si,3,Ca2Si5N8
0.0,Ca-Pt-Si,3,Ca2Si5Pt3
5.6806,B-Ca-O-Si,4,Ca2SiB2O7
0.0,Ca-Ir-Si,3,Ca2SiIr2
4.1738,Ca-O-Si,3,Ca2SiO4
3.2582,Ca-O-Si,3,Ca2SiO4
4.1932,Ca-O-Si,3,Ca2SiO4
4.7352,Ca-O-Si,3,Ca2SiO4
4.3706,Ca-O-Si,3,Ca2SiO4
4.6781,Ca-O-Si,3,Ca2SiO4
4.199400000000001,Ca-O-Si,3,Ca2SiO4
4.2052000000000005,Ca-O-Si,3,Ca2SiO4
4.030899999999999,Ca-O-Si,3,Ca2SiO4
4.053000000000001,Ca-O-Si,3,Ca2SiO4
4.1639,Ca-O-Si,3,Ca2SiO4
4.3558,Ca-O-Si,3,Ca2SiO4
0.3509,Ca-F-O-Si,4,Ca2SiO4F
0.0359,Ca-O-Si,3,Ca2SiO5
0.0,Ca-Mn-O-Sm-Y,5,Ca2SmYMn4O12
0.6619999999999999,Ca-Sn,2,Ca2Sn
0.0559000000000002,Ca-Sn,2,Ca2Sn
0.0,Ca-F-Sn,3,Ca2Sn2F3
1.1584999999999992,Ca-O-Sn,3,Ca2Sn2O5
2.0574,Ca-O-Sn,3,Ca2Sn3O8
2.4627,Ca-O-Sn,3,Ca2Sn3O8