eg,chemsys,nelements,formula
0.0,C-Cu-O,3,Cu(CO2)2
0.0,C-Cu-O,3,Cu(CO4)2
0.0,Cl-Cu-O,3,Cu(Cl2O)2
0.0,Cl-Cu-O,3,Cu(ClO)2
0.0,Cl-Cu-H,3,Cu(HCl)2
0.0,Cu-H-O,3,Cu(HO)2
0.1940000000000001,Cu-H-O,3,Cu(HO)2
0.0,Cu-Hg-N,3,Cu(HgN)2
0.0,Cu-I-N,3,Cu(IN)4
0.0,Cu-I-N,3,Cu(IN3)2
0.3144999999999998,Cu-I-O,3,Cu(IO3)2
0.4999000000000002,Cu-I-O,3,Cu(IO3)2
0.0,Cu-Ir-S,3,Cu(IrS2)2
0.0,Cu-Mo-Se,3,Cu(Mo3Se4)2
0.0,Cl-Cu-N,3,Cu(N3Cl)2
0.0,Cu-N-O,3,Cu(N3O2)2
0.0051999999999998,Cl-Cu-N,3,Cu(NCl2)2
0.0,Cu-F-N,3,Cu(NF2)2
0.0,Cu-N-O,3,Cu(NO)3
0.0,Cu-N-O,3,Cu(NO3)2
0.0,Cu-Ni-O,3,Cu(NiO2)2
0.0,Cu-O-P,3,Cu(PO3)2
0.1401000000000003,Cu-Pt-S,3,Cu(PtS2)2
0.0,Cu-O-Rh,3,Cu(RhO2)2
0.0,Cu-Rh-S,3,Cu(RhS2)2
0.0,Cu-Rh-Se,3,Cu(RhSe2)2
0.4813,Cu-O-Sb,3,Cu(SbO2)2
0.0,Cu-O-Sb,3,Cu(SbO2)2
0.0,Cu-O-Sb,3,Cu(SbO3)2
0.0,Cu-S-Sn,3,Cu(SnS2)4
0.0,Cu-O-Te,3,Cu(TeO3)4
0.0,Cu-N,2,Cu10N3
0.0,Cu-Sb,2,Cu10Sb3
0.0,Cu-Sn,2,Cu10Sn3
0.0,Cu-N-Pd,3,Cu11PdN4
0.0,Cu-S,2,Cu11S16
0.0,Cu-Sb,2,Cu11Sb3
0.0,Cu-N-Pd,3,Cu12PdN4
0.0,Cu-Se,2,Cu13Se8
0.0,Cu-Si,2,Cu15Si4
0.0,Cu-Se,2,Cu17Se10
0.0,Cu-S,2,Cu18S11
0.0287999999999999,Cu-O-S,3,Cu2(SO4)3
0.0,Cu-O-S,3,Cu2(SO4)3
0.0,Cu-Se-W,3,Cu2(WSe2)3
0.0,Cu-N-Pd,3,Cu23PdN8
0.0,Ag-Cu-O-S,4,Cu2Ag(SO5)2
0.0,Ag-Cu-O-Se,4,Cu2Ag(SeO5)2
0.0,Ag-Cu-O,3,Cu2Ag2O3
0.5250000000000001,Ag-Cu-N-O-Se,5,Cu2Ag5Se4NO15
0.3429999999999999,Ag-Cu-H-O-S,5,Cu2AgH(SO5)2
0.3401999999999998,Ag-Cu-H-O-Se,5,Cu2AgH(SeO5)2
0.0,Ag-Cu-O,3,Cu2AgO4
1.0718000000000003,Ag-Cu-P-S,4,Cu2AgPS4
0.0,As-Cu,2,Cu2As
0.0,As-Cu-H-O,4,Cu2As(HO3)2
0.0,As-Cu-O,3,Cu2As2O7
0.0,As-Cu-O-Pb,4,Cu2As2PbO10
0.0,As-Cu,2,Cu2As3
0.0,As-Cl-Cu-O,4,Cu2AsClO4
0.0,As-Cu-O,3,Cu2AsO5
0.0,As-Cu-O,3,Cu2AsO6
0.0,B-C-Cu,3,Cu2B2C
0.0,B-Cu-Ir,3,Cu2B3Ir4
0.0409000000000001,B-Cu-H-O,4,Cu2BH5O6
0.0,B-Cu-O,3,Cu2BO6
0.0,Bi-Cu-O-Sb,4,Cu2Bi3Sb3O14
0.0,Bi-Cu-O-P,4,Cu2BiPO6
0.0,Bi-Cu-O-S,4,Cu2BiSO2
0.2172,Br-Cl-Cu,3,Cu2BrCl
0.0,Br-Cu-O,3,Cu2BrO3
0.0253000000000001,C-Cu-O,3,Cu2CO5
0.0141999999999999,C-Cu-O,3,Cu2CO5
0.0,Cl-Cu-O,3,Cu2Cl2O
0.0,Cl-Cu-O,3,Cu2ClO3
0.0,Cu-Ge-I,3,Cu2GeI6
0.0,Cu-Ge-O,3,Cu2GeO4
0.0257999999999993,Cu-Ge-S,3,Cu2GeS3
0.0465999999999997,Cu-Ge-S,3,Cu2GeS3
0.1110999999999995,Cu-Ge-S,3,Cu2GeS3
0.0,Cu-Ge-S,3,Cu2GeS4
0.0,Cu-Ge-Se,3,Cu2GeSe3
0.0,Cu-Ge-Se,3,Cu2GeSe4
0.0,Cu-Ge-Te,3,Cu2GeTe3
0.0,C-Cu-H-O,4,Cu2H2CO5
0.0,Cl-Cu-H-O,4,Cu2H3ClO3
0.0,Cu-H-N-O,4,Cu2H3NO5
0.0,Cu-H-N-O,4,Cu2H3NO6
0.0,C-Cu-H-O,4,Cu2H4CO5
2.9341,C-Cu-H-N-O,5,Cu2H5C3N3O5
0.0,Cu-F-Hg-S,4,Cu2Hg2SF6
0.0,Cu-Ge-Hg-S,4,Cu2HgGeS4
0.0456000000000003,Cu-Ge-Hg-S,4,Cu2HgGeS4
0.0,Cu-Ge-Hg-Se,4,Cu2HgGeSe4
0.5589000000000004,Cu-Hg-I,3,Cu2HgI4
0.3178999999999998,Cu-Hg-I,3,Cu2HgI4
0.0,Br-Cu-I,3,Cu2IBr
0.0,Cu-I-O,3,Cu2IO3
0.0,Cu-I-O,3,Cu2IO8
0.0,Cu-Mo-Se,3,Cu2Mo3Se4
0.0,Cu-N,2,Cu2N
0.0,Cu-N-O,3,Cu2NO6
0.0019,Cu-N-O,3,Cu2NO6
0.0173,Cu-N-O,3,Cu2NO6
0.0,Cu-Ni-O,3,Cu2Ni11O13
0.0,Cu-Ni-O,3,Cu2NiO4
0.0918999999999998,Cu-Ni-O,3,Cu2NiO4
0.0,Cu-Ni-Sb,3,Cu2NiSb
0.0,Cu-Ni-Sn,3,Cu2NiSn
0.0,Cu-Ni-S-Sn,4,Cu2NiSn3S8
0.0,Cu-Ni-O-Sn,4,Cu2NiSnO4
0.0,Cu-Ni-S-Sn,4,Cu2NiSnS4
0.0,Cu-Ni-Se-Sn,4,Cu2NiSnSe4
0.2721,Cu-Ni-O-Te,4,Cu2NiTeO6
0.5126999999999997,Cu-O,2,Cu2O
0.0,Cu-O,2,Cu2O3
0.1360000000000001,Cu-O,2,Cu2O3
0.0458999999999999,Cu-F-O,3,Cu2OF2
0.0,Cu-F-O,3,Cu2OF2
0.1015999999999999,Cu-F-O,3,Cu2OF2
0.0,Cu-O-P,3,Cu2P2O7
0.0,Cu-O-P,3,Cu2P3O10
0.0,Cu-H-O-P,4,Cu2PHO5
0.0,Cu-O-P,3,Cu2PO4
0.0,Cu-F-O-P,4,Cu2PO4F
0.0,Cu-O-P,3,Cu2PO5
0.0,Cu-P-Pd,3,Cu2PPd2
0.6290000000000004,Cu-O-Pb,3,Cu2PbO2
0.0,Cl-Cu-O-Pb-Se,5,Cu2PbSe2(ClO3)2
0.0,Cu-Pd-Se,3,Cu2Pd3Se4
0.0,Au-Cu-Pd,3,Cu2PdAu
0.0,Au-Cu-Pt,3,Cu2PtAu
0.0,Cu-S,2,Cu2S
0.1604999999999998,Cu-S,2,Cu2S
1.2158000000000002,Cu-S,2,Cu2S
0.1303,Cu-S,2,Cu2S
1.4363999999999997,Cu-O-S,3,Cu2SO4
1.4764000000000004,Cu-O-S,3,Cu2SO4
0.0,Cu-O-S,3,Cu2SO5
0.0,Cu-Sb,2,Cu2Sb
0.0509999999999992,Cu-Se,2,Cu2Se
0.0,Cu-Se,2,Cu2Se
0.0,Cu-N-O-Se,4,Cu2Se2NO10
0.0,Cu-O-Se,3,Cu2SeO4
0.6345999999999998,Cu-S-Se,3,Cu2SeS3
0.4010999999999995,Cu-Hg-S-Si,4,Cu2SiHgS4
0.0161000000000002,Cu-Hg-Se-Si,4,Cu2SiHgSe4
0.0,Cu-Hg-Si-Te,4,Cu2SiHgTe4
0.0,Cu-Ni-S-Si,4,Cu2SiNiS4
0.0,Cu-O-Si,3,Cu2SiO4
0.0,Cu-P-Si,3,Cu2SiP4
1.3431999999999995,Cu-Pb-S-Si,4,Cu2SiPbS4
0.6398000000000001,Cu-S-Si,3,Cu2SiS3
0.8566000000000003,Cu-S-Si,3,Cu2SiS3
1.1178999999999997,Cu-S-Si,3,Cu2SiS3
0.0,Cu-S-Si,3,Cu2SiS3
1.197,Cu-S-Si,3,Cu2SiS3
0.2386999999999997,Cu-Se-Si,3,Cu2SiSe3
0.0,Cu-Si-Te,3,Cu2SiTe3
0.1598999999999995,Cu-Si-Te,3,Cu2SiTe3
0.0,Cu-Pd-Sn,3,Cu2Sn2Pd
0.0,Cu-Hg-S-Sn,4,Cu2SnHgS4
0.0,Cu-Hg-Se-Sn,4,Cu2SnHgSe4
0.0,Cu-Hg-Sn-Te,4,Cu2SnHgTe4
0.0182999999999999,Cu-S-Sn,3,Cu2SnS3
0.0,Cu-S-Sn,3,Cu2SnS3
0.0341000000000004,Cu-S-Sn,3,Cu2SnS3
0.0,Cu-Se-Sn,3,Cu2SnSe3
0.0,Cu-Se-Sn,3,Cu2SnSe4
0.0,Cu-Sn-Te,3,Cu2SnTe3
0.0,Cu-Te,2,Cu2Te
0.0601000000000002,Br-Cu-O-Te,4,Cu2Te2Br2O5
0.0748999999999999,Cl-Cu-O-Te,4,Cu2Te2Cl2O5
0.0,Cl-Cu-O-Pb-Te,5,Cu2Te2Pb(ClO3)2
0.0,Cu-O-Te,3,Cu2Te3O8
0.0363000000000002,Cu-O-Te,3,Cu2TeO6
0.6292000000000004,Cu-O-W,3,Cu2W2O7
0.0171999999999998,Cu-O-W,3,Cu2WO4
0.9449999999999998,Cu-O-W,3,Cu2WO4
0.0,Cu-O-W,3,Cu2WO4
1.3177000000000003,Cu-O-W,3,Cu2WO4
1.3776000000000002,Cu-O-W,3,Cu2WO4
0.6993000000000003,Cu-O-W,3,Cu2WO4
0.6311,Cu-O-W,3,Cu2WO4
1.3590999999999998,Cu-S-W,3,Cu2WS4
1.4443,Cu-S-W,3,Cu2WS4
0.0,Cu-Se-W,3,Cu2WSe4
1.2756999999999996,Cu-Se-W,3,Cu2WSe4
0.0,As-Cu-O,3,Cu3(AsO4)2
0.0,Br-Cu-N,3,Cu3(BrN)4
0.0,C-Cu-O,3,Cu3(CO4)2
0.0,Cu-Ge-O,3,Cu3(GeO3)4
0.0028999999999999,Cu-I-O,3,Cu3(I3O10)2
0.0,Cu-I-N,3,Cu3(IN)4
0.0635999999999999,Cu-I-N,3,Cu3(IN)4
0.3132999999999999,Cu-Mo-O,3,Cu3(MoO3)4
0.0,Cu-Mo-O,3,Cu3(MoO3)4
0.3167,Cu-Mo-O,3,Cu3(MoO3)4
0.0,Cu-Mo-O,3,Cu3(MoO5)2
0.0,Cu-Ni-O,3,Cu3(NiO3)4
0.0,Cu-F-O,3,Cu3(OF)2
0.0,Cu-O-P,3,Cu3(P2O7)2
0.0,Cu-O-P,3,Cu3(PO4)2
0.0,Cu-O-Sb,3,Cu3(SbO3)4
0.0,Cu-O-Sn,3,Cu3(SnO3)4
0.0,Cu-O-Te,3,Cu3(TeO5)2
0.0952999999999999,Cu-O-Te,3,Cu3(TeO5)2
0.0,Cu-O-W,3,Cu3(WO3)4
0.0,Cu-N-Pd,3,Cu31PdN8
0.0,Ag-Cu,2,Cu3Ag
0.9971999999999994,Ag-Cu-P-S,4,Cu3Ag3(PS4)2
0.0,As-Cu,2,Cu3As
0.0,As-Cu-H-O-Pb,5,Cu3As2H2PbO10
0.0,As-Cu,2,Cu3As4
0.0,As-Cu-F-O,4,Cu3As4(OF)6
0.0,As-Cu-F,3,Cu3AsF12
0.1564999999999998,As-Cu-O,3,Cu3AsO7
0.0,As-Cu-S,3,Cu3AsS3
0.0,As-Cu-S,3,Cu3AsS4
0.0,As-Cu-Se,3,Cu3AsSe4
0.0,Au-Cu,2,Cu3Au
0.0,B-Cu-O-Pb,4,Cu3B4Pb2O11
0.0,B-Cu-Pt,3,Cu3B5Pt9
0.3612000000000002,B-Cu-H-O,4,Cu3B6H2O13
0.0,B-Br-Cu-O,4,Cu3B7BrO13
0.0,B-Cu-I-O,4,Cu3B7IO13
0.0,B-Cu-O,3,Cu3BO5
0.0171000000000001,Bi-Cu-O-P,4,Cu3Bi2(PO7)2
0.0,Bi-Br-Cu-O-Se,5,Cu3BiSe2BrO8
0.0,Bi-Cl-Cu-O-Se,5,Cu3BiSe2ClO8
0.0,Bi-Cu-I-O-Se,5,Cu3BiSe2IO8
0.0,Cl-Cu,2,Cu3Cl
0.0,Cu-F,2,Cu3F
0.0,Cu-Ge,2,Cu3Ge
0.0,Cu-Ge-O-P,4,Cu3Ge(PO5)2
0.0,C-Cu-H-O,4,Cu3H2(CO4)2
0.3217000000000001,Cu-F-H-O,4,Cu3H2(OF2)2
0.4116999999999999,Cu-H-Mo-O,4,Cu3Mo2(HO5)2
0.0,Cu-H-Mo-O,4,Cu3Mo2(HO5)2
0.1998999999999999,Cu-H-Mo-O,4,Cu3Mo2(HO5)2
0.0,Cu-Mo-O,3,Cu3Mo2O9
0.0,Cu-N,2,Cu3N
0.1947000000000001,Cu-N,2,Cu3N
0.0,Cl-Cu-N-O,4,Cu3N4Cl4O
0.0,Cu-F-N,3,Cu3NF3
0.0,Cu-Ni,2,Cu3Ni
0.0,C-Cu-Ni-O,4,Cu3Ni(CO5)2
0.0,Cu-F-Ni,3,Cu3NiF6
0.0,Cl-Cu-H-Ni-O,5,Cu3NiH6(ClO3)2
0.0,Cu-Hg-Ni-Se,4,Cu3NiHgSe4
0.0,Cu-Ni-Pb-Se,4,Cu3NiPbSe4
0.0,Cu-O,2,Cu3O2
0.0,Cu-O,2,Cu3O4
0.0,Cu-F-O,3,Cu3OF5
0.0,Cu-P,2,Cu3P
0.4206000000000003,Cu-P-S-Se,4,Cu3P(SeS)2
0.0,Cu-F-P,3,Cu3PF12
1.0202,Cu-P-S,3,Cu3PS4
0.0,Cu-P-Se,3,Cu3PSe4
0.0,Cu-Pd,2,Cu3Pd
0.0,Cu-Pd-S,3,Cu3Pd13S7
0.0,Cu-Pd,2,Cu3Pd2
0.0,Au-Cu-Pd,3,Cu3PdAu4
0.0,Cu-N-Pd,3,Cu3PdN
0.0,Cu-Pt,2,Cu3Pt
0.0,Cu-Rh,2,Cu3Rh
0.0,Cu-N-Rh,3,Cu3RhN
0.0,Cu-Ru,2,Cu3Ru
0.0,Cu-N-Ru,3,Cu3RuN
0.0,Cu-S,2,Cu3S2
0.0,Cu-Sb,2,Cu3Sb
0.0021999999999997,Cu-O-P-Sb,4,Cu3Sb(PO4)4
0.0,Cu-F-O-Sb,4,Cu3Sb4(OF)6
0.0,Cu-F-Sb,3,Cu3SbF12
0.0,Cu-S-Sb,3,Cu3SbS4
0.0,Cu-Sb-Se,3,Cu3SbSe4
0.0,Cu-Se,2,Cu3Se2
0.0,Cl-Cu-O-Se,4,Cu3Se2(ClO3)2
0.0064999999999999,Cl-Cu-O-Se,4,Cu3Se2(ClO3)2
0.0,Cu-Si,2,Cu3Si
0.0,Cu-Sn,2,Cu3Sn
0.0,Cu-O-P-Sn,4,Cu3Sn(PO4)4
0.5396999999999998,Cu-O-Pb-Sn,4,Cu3Sn4PbO12
0.0,Au-Cu-Sn,3,Cu3SnAu
0.0,Cu-Te,2,Cu3Te
0.0,Cu-Te,2,Cu3Te2
0.0,Br-Cu-O-Te,4,Cu3Te2(BrO3)2
0.0,Cu-O-Te,3,Cu3TeO6
0.0,Cu-O-Pb-Te,4,Cu3TePbO8
0.7672999999999996,Cl-Cu-S-Te,4,Cu3TeS3Cl
0.0,Cu-W,2,Cu3W
0.0,Bi-Cu-S,3,Cu4(BiS2)5
0.0,Cu-O-P,3,Cu4(PO4)3
0.0,As-Cu,2,Cu4As
0.0,As-Cu-O,3,Cu4As2O9
0.0,Au-Cu,2,Cu4Au
0.0,Bi-Cu-O-Pb-Se,5,Cu4Bi3Pb(SeO)4
0.1106000000000007,Br-Cl-Cu,3,Cu4Br3Cl
0.1787,Br-Cl-Cu,3,Cu4BrCl3
1.6966,C-Cu-H-N,4,Cu4H3C2N5
0.0,Br-Cu-I,3,Cu4I3Br
0.0,Cl-Cu-I,3,Cu4I3Cl
0.0469999999999997,Br-Cu-I,3,Cu4IBr3
0.0,Cu-Mo-O-W,4,Cu4MoW3O16
0.0,Cu-Ge-Ni-S,4,Cu4NiGe2S7
0.0,Cu-O,2,Cu4O3
0.0,Cu-F-O,3,Cu4OF6
0.1848,Cu-F-O,3,Cu4OF6
0.0,Cu-O-P,3,Cu4P2O9
0.0,Cu-Pd,2,Cu4Pd
0.0,Cu-O-Pt,3,Cu4PtO5
0.0,Cu-N-S,3,Cu4S3N
0.0,Cu-O-S,3,Cu4SO12
0.0,Cu-Se,2,Cu4Se3
0.0,Cu-O-Se,3,Cu4Se3O10
0.0,Cu-Ge-O-Si,4,Cu4Si(GeO4)3
0.0,Cu-Ni-S-Si,4,Cu4Si2NiS7
1.2078000000000009,Cu-P-Si,3,Cu4SiP8
0.0,Cu-P-Sn,3,Cu4SnP10
0.2416999999999998,Cu-P-Sn,3,Cu4SnP10
0.1305,As-Cu-O,3,Cu5(AsO5)2
0.0912000000000001,As-Cu-O,3,Cu5(AsO6)2
0.0,Cu-O-P,3,Cu5(PO5)2
0.0,Cu-O-P,3,Cu5(PO6)2
0.0,Cu-O-S,3,Cu5(SO9)2
0.0,Cu-O-Si,3,Cu5(Si2O7)2
0.0,As-Cu,2,Cu5As2
0.1701000000000001,As-Cu-H-O,4,Cu5As2(HO3)4
0.0,B-Bi-Cu-O,4,Cu5Bi2(B2O7)2
0.0,Cu-Ge,2,Cu5Ge2
0.0,Cu-H-O-S,4,Cu5H14(SO9)2
0.0,Cl-Cu-H-O,4,Cu5H8(ClO5)2
0.0,Cu-O,2,Cu5O7
0.0,Cu-O-P,3,Cu5P3O13
0.0,Cl-Cu-O-Se,4,Cu5Se2(ClO4)2
0.0,Cu-S-Si,3,Cu5Si2S7
0.0,Cu-Se-Sn,3,Cu5Sn2Se7
0.0,Cu-Sn-Te,3,Cu5Sn2Te7
0.0,Cu-Sn,2,Cu5Sn4
0.0,Au-Cu-N,3,Cu6AuN2
0.0,Bi-Cu-S,3,Cu6BiS6
0.0,Cu-Ge-Sb,3,Cu6GeSb
0.0,Cu-Ni-O,3,Cu6NiO6
0.0,Cu-F-O,3,Cu6OF11
0.6021999999999998,Br-Cu-P-S,4,Cu6PS5Br
0.0,Cu-O-Pb,3,Cu6PbO8
0.0,Cu-N-Pd,3,Cu6PdN2
0.0,As-Cu-Sb,3,Cu6SbAs
0.0,Cu-Sn,2,Cu6Sn5
0.0,Cu-Ge-Sn,3,Cu6SnGe
0.0,Cu-O-Sn,3,Cu6SnO8
0.0212000000000003,Cu-S-Sn-W,4,Cu6SnWS8
0.0,Cl-Cu-H-Mo-O-Te,6,Cu6Te2Mo2H2Cl4O15
0.0,Cu-Hg,2,Cu7Hg6
0.0,Cu-O-S,3,Cu7S2O21
0.0,Cu-N-S,3,Cu7S4N
0.0,Cu-Si,2,Cu7Si2
0.0,Cu-O-S-Te,4,Cu7Te2(SO10)2
0.0,Cu-Te,2,Cu7Te4
0.0,Cu-F-O-Te,4,Cu7Te6(O9F)2
0.6152999999999995,Cu-Ge-S,3,Cu8GeS6
0.0,Cu-N-O,3,Cu8NO11
0.0,Cu-O,2,Cu8O
0.0,Cu-O,2,Cu8O7
0.8296999999999999,Cu-S-Si,3,Cu8SiS6
0.0,Cu-O,2,Cu9O13
0.0,Cu-H-O-P,4,Cu9P4(HO10)2
0.0,Cu-S,2,Cu9S5
0.0,As-Cu-S-Sb,4,Cu9Sb(AsS6)2
0.0,Cu-Se,2,Cu9Se5
0.0,Cu-Se,2,Cu9Se8
0.0,Ag-Cu-O-Pb,4,CuAg10(PbO4)3
0.4723000000000001,Ag-Cu-O-P,4,CuAg2P2O7
0.0,Ag-Cu,2,CuAg3
0.2465999999999999,Ag-Cu-S,3,CuAg3S2
0.2285000000000003,Ag-Cu-S,3,CuAg3S2
0.0,Ag-Cu-O-Te,4,CuAg4TeO6
0.0,Ag-Cu-F,3,CuAgF3
0.0447000000000001,Ag-Cu-Ge-Se,4,CuAgGeSe3
0.1343999999999998,Ag-Cu-O,3,CuAgO2
0.0,Ag-Cu-O,3,CuAgO2
0.0878999999999998,Ag-Cu-O-P,4,CuAgPO4
0.6381999999999994,Ag-Cu-S,3,CuAgS
0.0,Ag-Cu-S,3,CuAgS
0.5674000000000001,Ag-Cu-S,3,CuAgS
0.2627000000000006,Ag-Cu-S,3,CuAgS
0.2427000000000001,Ag-Cu-Se,3,CuAgSe
0.0,Ag-Cu-Te,3,CuAgTe
0.0,Ag-Cu-Te,3,CuAgTe2
0.0,As-Cu,2,CuAs
0.0,As-Cu,2,CuAs2
0.6034999999999999,As-Cu-H-O,4,CuAs4(H5O8)2
0.0,As-Cu-F,3,CuAsF7
0.0,As-Cu-O,3,CuAsO3
0.6723999999999997,As-Cu-O-Pb-S,5,CuAsPb2SO9
1.8171000000000004,As-Cu-O-Pb,4,CuAsPbO4
0.4026999999999998,As-Cu-O-Pb,4,CuAsPbO5
0.0,As-Cu-Pt-S,4,CuAsPtS2
0.0,As-Cu-S,3,CuAsS
0.0,As-Cu-Se,3,CuAsSe
0.0,As-Cu-Se,3,CuAsSe2
0.322,As-Cu-Se,3,CuAsSe2
0.0453999999999998,As-Cu-Se,3,CuAsSe2
0.0,Au-Cu,2,CuAu
0.0,Au-C-Cl-Cu-N-O,6,CuAu2C4N4(Cl2O3)2
0.0,Au-Cu,2,CuAu3
0.0,Au-Cu,2,CuAu4
0.0,Au-Cl-Cu-O,4,CuAuClO2
0.0,Au-Cu-F,3,CuAuF5
0.0,Au-Cu-O,3,CuAuO2
0.0,Au-Cu-Se,3,CuAuSe4
3.2264000000000004,B-C-Cu-N,4,CuB(CN)4
0.8959999999999999,B-C-Cu-N,4,CuB2(CN)8
0.0,B-Cu-O-Pb,4,CuB2(PbO3)2
0.1935000000000002,B-Cu-O,3,CuB4O7
0.0,B-Cl-Cu-O,4,CuBClO4
0.1775999999999999,B-Cl-Cu-H-O,5,CuBH4ClO4
0.0,B-Cu-Ir,3,CuBIr
1.4613999999999994,B-Cu-O,3,CuBO2
0.0,B-Cu-O,3,CuBO3
1.7424999999999995,B-Cu-S,3,CuBS2
1.487,B-Cu-Se,3,CuBSe2
0.0,Bi-Cu,2,CuBi
0.0,Bi-Cu-O-P,4,CuBi(PO4)2
1.2814,Bi-Cu-O-W,4,CuBi(WO4)2
1.3224999999999998,Bi-Cu-O-W,4,CuBi(WO4)2
0.0,Bi-Cu-O-Se,4,CuBi2Se2O
0.0,Bi-Cu-O-Te,4,CuBi2Te2O
0.2520000000000006,Bi-Cu-S,3,CuBi5S8
0.6017999999999999,Bi-Cu-O,3,CuBiO2
0.6272000000000002,Bi-Cu-O,3,CuBiO2
0.0,Bi-Cu-O,3,CuBiO3
0.5360999999999994,Bi-Cu-Pt-S,4,CuBiPtS3
0.4640000000000004,Bi-Cu-S,3,CuBiS2
0.6432000000000002,Bi-Cl-Cu-S,4,CuBiSCl2
0.0,Bi-Cu-Se,3,CuBiSe2
0.0,Bi-Cu-O-Se,4,CuBiSeO
0.3006000000000002,Bi-Cu-O-Se,4,CuBiSeO
0.0,Bi-Cu-O-Te,4,CuBiTeO
0.4870999999999998,Br-Cu,2,CuBr
0.9962,Br-Cu,2,CuBr
0.1702000000000003,Br-Cu,2,CuBr
0.4321000000000001,Br-Cu,2,CuBr
0.4449000000000001,Br-Cu,2,CuBr
0.2019000000000002,Br-Cu,2,CuBr
0.0,Br-Cu,2,CuBr2
0.1985999999999999,Br-Cu-N-O,4,CuBr4(NO)2
0.0,Br-Cu-O,3,CuBrO2
0.4421,Br-Cu-O,3,CuBrO2
0.3076,Br-Cu-O,3,CuBrO2
0.0,C-Cu-N-O,4,CuC2(NO3)2
0.2179999999999999,C-Cu-N-S,4,CuC2(SN3)2
0.0,C-Cu-F-O-S,5,CuC2S2(OF)6
0.0,C-Cu-N-O,4,CuC3N2O5
0.0,C-Cu,2,CuC6
0.0,C-Cl-Cu-N-S,5,CuC8S4N4Cl
2.3871,C-Cl-Cu-O,4,CuCClO
2.5202,C-Cu-N,3,CuCN
0.0,C-Cu-N,3,CuCN2
0.0,C-Cu-O,3,CuCO3
0.0,C-Cu-S,3,CuCS
2.0695,C-Cu-N-S,4,CuCSN
1.8558,C-Cu-N-S,4,CuCSN
0.5736000000000003,Cl-Cu,2,CuCl
0.5569000000000002,Cl-Cu,2,CuCl
0.5646,Cl-Cu,2,CuCl
0.4510000000000005,Cl-Cu,2,CuCl
0.3260999999999994,Cl-Cu,2,CuCl
0.0,Cl-Cu,2,CuCl2
0.0,Cl-Cu,2,CuCl3
0.0,Cl-Cu-O,3,CuCl3O2
0.0,Cl-Cu,2,CuCl4
0.0,Cl-Cu-F,3,CuClF10
0.2575999999999998,Cl-Cu-O,3,CuClO
0.6614,Cl-Cu-O,3,CuClO2
0.6198,Cl-Cu-O,3,CuClO2
0.0,Cl-Cu-O,3,CuClO2
0.0,Cu-F,2,CuF
0.0,Cu-F,2,CuF2
0.6942999999999993,Cu-Ge-N,3,CuGe2N3
0.0,Cu-Ge-P,3,CuGe2P3
0.0,Cu-Ge,2,CuGe3
0.0894999999999996,Cu-Ge-I,3,CuGeI3
0.6691000000000003,Cu-Ge-I,3,CuGeI3
0.0,Cu-Ge-N,3,CuGeN2
0.0,Cu-Ge-O,3,CuGeO3
0.2040999999999999,Cu-Ge-O,3,CuGeO3
0.0,Cu-Ge-P-Se,4,CuGePSe
0.0,Cu-Ge-Rh,3,CuGeRh2
0.0,Cu-H,2,CuH
0.5729000000000006,Cu-H,2,CuH
0.2341,C-Cl-Cu-H-N,5,CuH10C2(NCl2)2
0.0,Cu-H-O-S,4,CuH10SO9
0.0091999999999999,Cu-H-O-S,4,CuH10SO9
0.0363,Cu-H-O-S,4,CuH10SO9
0.3272999999999999,Cu-H-N-O-Se,5,CuH10Se2(NO5)2
0.0962,Cu-H-O-Se,4,CuH10SeO9
0.8291999999999999,C-Cu-H-N-O,5,CuH11C5NO6
0.7524000000000001,Cu-H-I-N,4,CuH12(IN)4
0.4609999999999999,Cu-H-N-O,4,CuH12(N5O4)2
0.2369,Cu-H-N-O,4,CuH12(NO6)2
0.6548,Cl-Cu-H-N-O,5,CuH12N2(Cl2O)2
0.6943,Cl-Cu-H-N-O,5,CuH12N2(Cl2O)2
0.5328999999999999,Cl-Cu-H-N-O,5,CuH12N2(Cl2O)2
0.7082,Cu-F-H-N-O,5,CuH12N2(OF2)2
0.0361,C-Cu-H-N-O-Pt,6,CuH16PtC4N4O11
1.1055,C-Cu-H-N-O-Pd,6,CuH18PdC4N4O11
0.0,Br-Cu-H-N,4,CuH2(Br2N)2
0.0,C-Cu-H-O,4,CuH2(CO2)2
0.0,Cl-Cu-H-N,4,CuH2(NCl2)2
0.0,Cu-F-H-N,4,CuH2(NF2)2
0.0,Cu-H-O-Se,4,CuH2(SeO3)2
2.0763,Br-C-Cu-H-N,5,CuH2CBrN2
1.7084,C-Cu-H-N-S,5,CuH2CS2N
0.2467000000000001,Cu-H-O-Pb-S,5,CuH2PbSO6
0.0072,Cu-H-O-S,4,CuH2SO5
0.0,Cu-H-O-Se,4,CuH2SeO5
2.1259,Cl-Cu-H-N,4,CuH3NCl
0.4739,Cl-Cu-H-O,4,CuH4(ClO)2
0.3091999999999997,Cu-H-I-O,4,CuH4(IO4)2
0.3971,Cu-F-H-O,4,CuH4(OF)2
0.2657,Cu-F-H-O,4,CuH4(OF)2
0.1182,C-Cl-Cu-H-N-O,6,CuH4C2NCl3O
0.1759999999999997,Cl-Cu-H-O-Pb,5,CuH4Pb2(ClO2)2
0.0,Cu-H-O-Se,4,CuH4SeO5
0.0509999999999999,Cl-Cu-H-N,4,CuH6(NCl)2
0.1922,Cu-H-N-O,4,CuH6(NO)4
0.0,Cu-H-O-Se,4,CuH6(SeO4)2
2.1545,Br-Cu-H-N,4,CuH6BrN2
0.0,C-Cu-H-N-O,5,CuH6CN2O3
1.1483,Cu-H-O-Pb-S,5,CuH6Pb4(SO7)2
0.7432000000000001,Cu-H-O-S,4,CuH6SO7
0.3167000000000001,Cu-H-O-S,4,CuH6SO7
0.5915,Br-Cu-H-O,4,CuH8(BrO2)2
0.1273,Br-C-Cu-H-N-O,6,CuH8C2Br3NO
0.0,C-Cu-H-N-O,5,CuH8C4(NO3)2
0.0,C-Cl-Cu-H-N-O,6,CuH8C4N8(ClO)2
0.3066,C-Cu-H-N-O,5,CuH8C6(N3O)2
0.5771000000000001,Cu-F-H-N-O,5,CuH8N2(OF2)2
0.4689,C-Cu-H-N-O,5,CuH9C5NO5
0.0,Cl-Cu-H-O,4,CuHClO
0.0,Cu-H-I-O,4,CuHIO4
0.0,Cu-H-O,3,CuHO2
0.0,Cu-F-H-O,4,CuHOF
0.0,Cu-Hg-N-O,4,CuHg(NO5)2
0.0,Cu-Hg-O,3,CuHgO2
0.0,Cu-Hg-O,3,CuHgO3
0.5100000000000002,Br-Cu-Hg-S,4,CuHgSBr
0.2962999999999995,Cl-Cu-Hg-S,4,CuHgSCl
0.4529000000000001,Cu-Hg-I-S,4,CuHgSI
0.4656000000000002,Br-Cu-Hg-Se,4,CuHgSeBr
0.6294999999999997,Cl-Cu-Hg-Se,4,CuHgSeCl
1.3599,Cu-I,2,CuI
0.0,Cu-I,2,CuI
1.5721999999999996,Cu-I,2,CuI
1.1762999999999997,Cu-I,2,CuI
1.1643,Cu-I,2,CuI
1.2119999999999995,Cu-I,2,CuI
1.6315,Cu-I,2,CuI
1.4615,Cu-I,2,CuI
1.6210000000000004,Cu-I,2,CuI
0.0,Cu-I,2,CuI2
0.0,Cu-I,2,CuI4
0.9536,Cu-I-O,3,CuIO4
0.0,Br-Cu-Ir,3,CuIrBr
0.0,Cu-F-Mo,3,CuMoF6
0.3221,Cu-F-Mo,3,CuMoF6
0.3694999999999999,Cu-Mo-O,3,CuMoO4
0.0,Cu-Mo-O,3,CuMoO4
0.0,Cu-Mo-N-S,4,CuMoS4N
0.0,Cu-N,2,CuN
0.0,Cs-S-V,3,Cs(V3S4)2
0.0,Cs-O-W,3,Cs(WO3)2
0.0,Cs-O-W,3,Cs(WO3)3
0.0537999999999999,Cs-O-W,3,Cs2(WO4)3
1.1161,Ag-As-Br-Cs,4,Cs2AgAsBr6
1.5886000000000002,Ag-As-Cl-Cs,4,Cs2AgAsCl6
2.4428,Ag-As-Cs-F,4,Cs2AgAsF6
0.0,Ag-Au-Br-Cs,4,Cs2AgAuBr6
0.7212999999999999,Ag-Au-Cl-Cs,4,Cs2AgAuCl6
0.0,Ag-Au-Cl-Cs,4,Cs2AgAuCl6
0.0,Ag-Au-Cs-F,4,Cs2AgAuF6
1.3547,Ag-Bi-Br-Cs,4,Cs2AgBiBr6
1.8663,Ag-Bi-Cl-Cs,4,Cs2AgBiCl6
2.7645,Ag-Bi-Cs-F,4,Cs2AgBiF6
0.8526,Ag-Bi-Cs-I,4,Cs2AgBiI6
0.0,Ag-Cs-F,3,Cs2AgF4
0.185,Ag-Cs-F,3,Cs2AgF4
0.0,Ag-Cs-F,3,Cs2AgF6
1.3698,Ag-Cs-F-Ir,4,Cs2AgIrF6
0.5337000000000001,Ag-Br-Cs-Mo,4,Cs2AgMoBr6
0.9531,Ag-Cl-Cs-Mo,4,Cs2AgMoCl6
2.7943,Ag-Cs-F-Mo,4,Cs2AgMoF6
1.1916000000000002,Ag-Br-Cs-Sb,4,Cs2AgSbBr6
1.6624,Ag-Cl-Cs-Sb,4,Cs2AgSbCl6
2.3185,Ag-Cs-F-Sb,4,Cs2AgSbF6
0.4386999999999998,Ag-Cs-I-Sb,4,Cs2AgSbI6
0.0,Al-Cs-O-Te,4,Cs2Al(TeO4)3
3.6622,Al-As-Cs-O,4,Cs2Al2As2O7
4.2490000000000006,Al-B-Cs-O,4,Cs2Al2B2O7
4.899699999999999,Al-Cs-O-P,4,Cs2Al2P2O9
3.6378,Al-Cs-O-Sb,4,Cs2Al2Sb2O7
0.0,Al-Cs-Tl,3,Cs2Al7Tl
1.4697,Ag-Al-Br-Cs,4,Cs2AlAgBr6
2.4585000000000004,Ag-Al-Cl-Cs,4,Cs2AlAgCl6
3.4974000000000003,Ag-Al-Cs-F,4,Cs2AlAgF6
0.0,Al-Au-Br-Cs,4,Cs2AlAuBr6
0.8686,Al-Au-Cl-Cs,4,Cs2AlAuCl6
1.5293,Al-Au-Cs-F,4,Cs2AlAuF6
0.0,Al-Au-Cs-I,4,Cs2AlAuI6
0.8611999999999997,Al-Cl-Cs-Cu,4,Cs2AlCuCl6
0.8501000000000001,Al-Cs-Ga-H,4,Cs2AlGaH6
0.0,Al-Br-Cs-Hg,4,Cs2AlHgBr6
0.0,Al-Cl-Cs-Hg,4,Cs2AlHgCl6
0.0,Al-Cs-F-Hg,4,Cs2AlHgF6
2.2348000000000003,Al-Br-Cs-In,4,Cs2AlInBr6
3.1183,Al-Cl-Cs-In,4,Cs2AlInCl6
4.5643,Al-Cs-F-In,4,Cs2AlInF6
0.6107999999999998,Al-Cs-H-In,4,Cs2AlInH6
0.9566,Al-Cs-I-In,4,Cs2AlInI6
2.9426,Al-Br-Cs-Tl,4,Cs2AlTlBr6
3.9209,Al-Cl-Cs-Tl,4,Cs2AlTlCl6
5.6085,Al-Cs-F-Tl,4,Cs2AlTlF6
1.1361999999999997,Al-Cs-H-Tl,4,Cs2AlTlH6
1.5910999999999995,Al-Cs-I-Tl,4,Cs2AlTlI6
0.9488,As-Cs-Pd,3,Cs2As2Pd
0.9559000000000002,As-Cs-Pt,3,Cs2As2Pt
0.4474999999999998,As-Cs,2,Cs2As3
0.0,As-Au-Br-Cs,4,Cs2AsAuBr6
0.3048000000000002,As-Au-Cl-Cs,4,Cs2AsAuCl6
0.8564999999999998,As-Au-Cs-F,4,Cs2AsAuF6
0.0,As-Au-Cs-I,4,Cs2AsAuI6
0.0675,As-Br-Cl-Cs,4,Cs2AsBrCl6
1.4734,Au-Cs-Se,3,Cs2Au2Se3
1.4695,Ba-Cs-O,3,Cs2Ba2O3
1.6482,Ba-Cs-O,3,Cs2Ba2O3
2.7813000000000003,Be-Cs-O,3,Cs2BeO2
3.1264000000000003,Be-Cs-O,3,Cs2BeO2
0.4540000000000002,Bi-Cs-Pd,3,Cs2Bi2Pd
0.4311,Au-Bi-Br-Cs,4,Cs2BiAuBr6
0.9914,Au-Bi-Cl-Cs,4,Cs2BiAuCl6
1.2369,Au-Bi-Cs-F,4,Cs2BiAuF6
0.0,Au-Bi-Cs-I,4,Cs2BiAuI6
4.4631,Br-Cl-Cs,3,Cs2BrCl
0.9489,Br-Cl-Cs-F,4,Cs2BrCl6F
2.2801,C-Cs-N,3,Cs2CN2
2.7473,Ca-Cl-Cs-O,4,Cs2Ca(Cl2O)2
4.1102,Br-Ca-Cs,3,Cs2CaBr4
5.034,Ca-Cl-Cs,3,Cs2CaCl4
6.091,Ca-Cs-F,3,Cs2CaF4
3.0097,Ca-Cs-H,3,Cs2CaH4
4.9367,Ca-Cs-O-P,4,Cs2CaP2O7
3.6131,Ca-Cl-Cs-Sn,4,Cs2CaSnCl6
2.0275000000000003,Ca-Cs-O-Tm-W,5,Cs2CaTm2(WO4)4
4.114,C-Cd-Cs-Fe-N,5,Cs2CdFe(CN)6
0.0,Ce-Cs-Cu-Mg-S,5,Cs2Ce2Mg(CuS3)2
2.6247,Ag-Br-Ce-Cs,4,Cs2CeAgBr6
2.9041,Ag-Ce-Cl-Cs,4,Cs2CeAgCl6
0.0,Ag-Ce-Cs-F,4,Cs2CeAgF6
0.2136,Ag-Ce-Cs-I,4,Cs2CeAgI6
1.8236,Ce-Cl-Cs,3,Cs2CeCl6
1.6740999999999997,Ce-Cl-Cs-Cu,4,Cs2CeCuCl6
0.2059999999999999,Ce-Cs-Cu-I,4,Cs2CeCuI6
2.2437000000000005,Ce-Cs-O,3,Cs2CeO3
0.0,Co-Cs-S,3,Cs2Co3S4
1.8768,Ag-Co-Cs-F,4,Cs2CoAgF6
0.0,Co-Cs-Cu-F,4,Cs2CoCu3F10
0.0,Co-Cs-F,3,Cs2CoF6
0.0,Co-Cs-F-Hg,4,Cs2CoHgF6
0.0,Co-Cs-S,3,Cs2CoS2
0.0,Co-Cs-Se,3,Cs2CoSe2
2.7195,Cd-Cr-Cs-H-O,5,Cs2Cr4Cd(HO4)4
0.8804,Cr-Cs-Cu-H-O,5,Cs2Cr4Cu(HO4)4
0.0,Cl-Cr-Cs,3,Cs2CrCl4
0.0,Cl-Cr-Cs-O,4,Cs2CrCl5O4
0.7999,Cl-Cr-Cs-O,4,Cs2CrCl5O4
0.0,Cr-Cs-F,3,Cs2CrF6
0.0,Cr-Cs-F-Hg,4,Cs2CrHgF6
0.6046,Cs-Cu-F-Ni,4,Cs2Cu3NiF10
0.0,Cs-Cu-F-Sn,4,Cs2Cu3SnF12
0.8647,As-Cl-Cs-Cu,4,Cs2CuAsCl6
0.0,Au-Cl-Cs-Cu,4,Cs2CuAuCl6
0.0,Au-Cs-Cu-F,4,Cs2CuAuF6
0.8439000000000001,Bi-Br-Cs-Cu,4,Cs2CuBiBr6
1.1183999999999998,Bi-Cl-Cs-Cu,4,Cs2CuBiCl6
1.1622999999999997,Bi-Cs-Cu-F,4,Cs2CuBiF6
0.3530999999999999,Bi-Cs-Cu-I,4,Cs2CuBiI6
0.0,Br-Cl-Cs-Cu,4,Cs2CuBrCl3
0.0,Cs-Cu-F,3,Cs2CuF4
0.0,Cs-Cu-F,3,Cs2CuF6
0.3988999999999998,Br-Cs-Cu-Mo,4,Cs2CuMoBr6
0.8535999999999997,Cl-Cs-Cu-Mo,4,Cs2CuMoCl6
0.0871999999999997,Cs-Cu-I-Mo,4,Cs2CuMoI6
0.0,Cs-Cu-O,3,Cs2CuO2
0.0,Cs-Cu-O-P,4,Cs2CuP2O7
0.0,Cs-Cu-N-O-Pb,5,Cs2CuPb(NO2)6
0.4006000000000003,Br-Cs-Cu-Sb,4,Cs2CuSbBr6
0.8979999999999997,Cl-Cs-Cu-Sb,4,Cs2CuSbCl6
0.6997999999999998,Cs-Cu-I-Sb,4,Cs2CuSbI6
3.8171,Ag-Cl-Cs-Dy,4,Cs2DyAgCl6
2.1667,Au-Cl-Cs-Dy,4,Cs2DyAuCl6
2.2443,Cl-Cs-Cu-Dy,4,Cs2DyCuCl6
3.5361,Ag-Cl-Cs-Er,4,Cs2ErAgCl6
2.0871,Au-Cl-Cs-Er,4,Cs2ErAuCl6
2.1700000000000004,Cl-Cs-Cu-Er,4,Cs2ErCuCl6
0.0,Ag-Cl-Cs-Eu,4,Cs2EuAgCl6