eg,chemsys,nelements,formula
0.0,Ce-O-Pr,3,CePr4O10
0.0,Al-Ce-Pr,3,CePrAl4
0.0,Ce-Fe-Pr,3,CePrFe4
0.0,Ce-Hg-Pr,3,CePrHg2
0.0,Ce-Mg-Pr,3,CePrMg2
0.0,Ce-O-Pr,3,CePrO2
0.0,Ce-O-Pr,3,CePrO4
0.0,Ce-O-Pr-V,4,CePrV2O6
0.0,Ce-Pt,2,CePt
0.0089000000000005,Ce-Pt,2,CePt2
0.0,Au-Ce-Pt,3,CePt2Au3
0.0,Ce-Pt,2,CePt3
0.0,Ce-Pt-Rh,3,CePt4Rh
0.0,Ce-Pt,2,CePt5
0.0,Ce-Pt-Rh,3,CePtRh
0.0,Ce-Pu,2,CePu
0.0,Ce-Pu,2,CePu3
0.0,Ce-Pu,2,CePu4
0.0,Ce-Co-Pu,3,CePu4Co3
0.0,Ce-Co-Pu,3,CePuCo4
0.0,Ce-Fe-Pu,3,CePuFe4
0.0,Ce-O-Pu,3,CePuO3
0.0,C-Ce-Re-Si,4,CeRe2SiC
0.0,B-Ce-Re,3,CeReB4
0.0,Ce-O-Re,3,CeReO4
0.0,Ce-Rh,2,CeRh
0.0,Ce-Rh,2,CeRh2
0.7865000000000002,Ce-O-Rh,3,CeRh2O5
0.0,Ce-Rh,2,CeRh3
0.0,C-Ce-Rh,3,CeRh3C
0.0,C-Ce-Rh,3,CeRhC2
0.0,Ce-O-Rh,3,CeRhO3
0.0,Ce-Pb-Rh,3,CeRhPb
0.0,Ce-Ru,2,CeRu2
0.0,C-Ce-Ru,3,CeRu3C
0.0,Ce-Rh-Ru,3,CeRuRh
0.0,Ce-S,2,CeS
0.0,Ce-S,2,CeS2
0.5090999999999999,Ce-N-O-S,4,CeS2NO8
0.0,Ce-S,2,CeS3
0.0,Ce-F-S,3,CeSF
0.0264999999999999,Ce-O-S,3,CeSO6
0.0,Ce-Sb,2,CeSb
0.0,Ce-Sb,2,CeSb2
0.0,Au-Ce-Sb,3,CeSb2Au
0.0,Ce-Pd-Sb,3,CeSb2Pd
0.0,Ce-Sb,2,CeSb3
0.0,Ce-Pd-Sb,3,CeSb3Pd
0.0,Au-Ce-Sb,3,CeSbAu
0.0,Ce-Ir-Sb,3,CeSbIr
0.0,Ce-O-Sb,3,CeSbO3
0.0,Ce-Pd-Sb,3,CeSbPd
0.0,Ce-Pt-Sb,3,CeSbPt
0.0,Ce-Pt-Sb,3,CeSbPt5
0.0,Ce-Rh-Sb,3,CeSbRh
0.0,Ce-Sb-Se,3,CeSbSe
0.0,Ce-Sb-Te,3,CeSbTe
0.2621000000000002,B-Ce-O-Sc,4,CeSc3(BO3)4
0.0,Al-Ce-Sc,3,CeScAl4
0.0,Ce-Ge-Sc,3,CeScGe
0.0,Ce-O-Sc,3,CeScO3
0.0,Ce-Pd-Sc,3,CeScPd6
0.0,Ce-S-Sc,3,CeScS3
0.0,Ce-Sb-Sc,3,CeScSb
0.0,Ce-Sc-Si,3,CeScSi
0.0,Ce-Se,2,CeSe
0.1250999999999997,Ce-Se,2,CeSe2
0.0,Ce-Se,2,CeSe2
0.0246000000000004,Ce-Se,2,CeSe2
0.2917,Ce-Se,2,CeSe2
0.4911000000000001,Ce-Se,2,CeSe2
0.6711,Ce-Se,2,CeSe2
0.996,Ce-Se,2,CeSe2
0.7831999999999999,Ce-Se,2,CeSe2
0.1594999999999999,Ce-Se,2,CeSe2
0.5335,Ce-Se,2,CeSe2
0.1298999999999996,Ce-Se,2,CeSe2
0.3073000000000001,Ce-Se,2,CeSe2
0.9642,Ce-Se,2,CeSe2
0.1695999999999999,Ce-Se,2,CeSe2
1.1492,Ce-Se,2,CeSe2
0.4972000000000001,Ce-Se,2,CeSe2
0.4956,Ce-Se,2,CeSe2
1.124,Ce-Se,2,CeSe2
1.0033,Ce-Se,2,CeSe2
0.5711999999999999,Ce-Se,2,CeSe2
0.2288000000000005,Ce-Se,2,CeSe2
0.4604999999999997,Ce-Se,2,CeSe2
0.5417000000000001,Ce-Se,2,CeSe2
0.5051999999999999,Ce-Se,2,CeSe2
0.3621000000000003,Ce-Se,2,CeSe2
0.486,Ce-Se,2,CeSe2
0.6930000000000001,Ce-Se,2,CeSe2
0.1797999999999997,Ce-Se,2,CeSe2
0.0679999999999996,Ce-Se,2,CeSe2
0.9877000000000002,Ce-Se,2,CeSe2
0.6561000000000001,Ce-Se,2,CeSe2
0.1846999999999998,Ce-Se,2,CeSe2
0.6221999999999999,Ce-Se,2,CeSe2
0.9663,Ce-Se,2,CeSe2
0.4412,Ce-Se,2,CeSe2
0.7992000000000001,Ce-Se,2,CeSe2
1.0305000000000002,Ce-Se,2,CeSe2
0.2543999999999999,Ce-Se,2,CeSe2
0.7140000000000004,Ce-Se,2,CeSe2
0.5235000000000001,Ce-Se,2,CeSe2
0.7385999999999999,Ce-Se,2,CeSe2
0.4606000000000003,Ce-Se,2,CeSe2
1.1233,Ce-Se,2,CeSe2
0.1541000000000001,Ce-Se,2,CeSe2
0.7241,Ce-Se,2,CeSe2
0.8058000000000005,Ce-Se,2,CeSe2
0.0,Ce-Si,2,CeSi
0.0,Ce-Si,2,CeSi2
0.0,Ag-Ce-Si,3,CeSi2Ag
0.0,Ce-Ir-Si,3,CeSi2Ir
0.0,Ce-Ir-Si,3,CeSi2Ir3
0.0,C-Ce-Mo-Si,4,CeSi2Mo2C
0.0,Ce-Ni-Si,3,CeSi2Ni
0.0,Ce-Ni-Si,3,CeSi2Ni9
0.0,Ce-Os-Ru-Si,4,CeSi2OsRu
0.0,Ce-Pt-Si,3,CeSi2Pt
0.0,Ce-Rh-Si,3,CeSi2Rh
0.0,Ce-Rh-Si,3,CeSi2Rh3
0.0,Ce-Ru-Si,3,CeSi2Ru
0.0,Ce-Ru-Si,3,CeSi2Ru3
0.0,Ce-Rh-Ru-Si,4,CeSi2RuRh
0.0,Ce-Ir-Si,3,CeSi3Ir
0.1189999999999997,Ce-N-Si,3,CeSi3N5
0.0,Ce-Os-Si,3,CeSi3Os
0.0,Ce-Pt-Si,3,CeSi3Pt
0.0,Ce-Rh-Si,3,CeSi3Rh
0.0,Ce-Ru-Si,3,CeSi3Ru
0.0,Ce-Ni-Si,3,CeSi4Ni9
0.0,Ce-Si,2,CeSi5
0.0,Ag-Ce-Si,3,CeSiAg
0.0,B-Ce-Ir-Si,4,CeSiBIr3
0.1574999999999997,B-Ce-O-Si,4,CeSiBO5
0.0,B-Ce-Rh-Si,4,CeSiBRh3
0.0,Ce-Ge-Si,3,CeSiGe
0.0,Ce-Ge-Pd-Si,4,CeSiGePd2
0.0,Ce-Ge-Rh-Si,4,CeSiGeRh2
0.0,Ce-H-Ru-Si,4,CeSiHRu
0.0,Ce-I-Si,3,CeSiI
0.0,Ce-Ir-Si,3,CeSiIr
0.0,Ce-Ir-Si,3,CeSiIr2
0.0,Ce-N-O-Si,4,CeSiNO2
0.0,Ce-Ni-Si,3,CeSiNi
0.0,Ce-Ni-Si,3,CeSiNi4
1.4477999999999995,Ce-O-Si,3,CeSiO4
0.0,Ce-Os-Si,3,CeSiOs
0.0,C-Ce-Os-Si,4,CeSiOs2C
0.0,Ce-Pd-Si,3,CeSiPd2
0.0,Ce-Pt-Si,3,CeSiPt
0.0,Ce-Pt-Si,3,CeSiPt3
0.0,Ce-Rh-Si,3,CeSiRh
0.0,Ce-Rh-Si,3,CeSiRh2
0.0,Ce-Ru-Si,3,CeSiRu
0.0,C-Ce-Ru-Si,4,CeSiRu2C
0.0,Ce-Sm,2,CeSm
0.0,Ce-Sm,2,CeSm3
0.0,Ce-S-Sm,3,CeSm3S4
0.0,B-Ce-Sm,3,CeSmB12
0.0,Ce-Fe-Sm,3,CeSmFe4
0.0,Ce-I-Sm,3,CeSmI4
0.0,Ce-Mg-Sm,3,CeSmMg2
0.0,Ce-O-Sm,3,CeSmO2
0.0,Ce-Sm-Tl,3,CeSmTl2
0.0,Ce-Sm-Zn,3,CeSmZn2
0.0,Ce-Rh-Sn,3,CeSn2Rh
0.0,Ce-Sn,2,CeSn3
0.0,Au-Ce-Sn,3,CeSnAu
0.0,Au-Ce-Sn,3,CeSnAu2
0.0,Ce-Ir-Sn,3,CeSnIr
1.6880999999999995,Ce-O-Sn,3,CeSnO4
0.0,Ce-Pd-Sn,3,CeSnPd
0.0,Ce-Pt-Sn,3,CeSnPt
0.0,Ce-Rh-Sn,3,CeSnRh
0.0,Ce-Ru-Sn,3,CeSnRu
0.0,Ce-O-Ta,3,CeTa3O9
0.0,Ce-O-Ta,3,CeTaO3
0.0,Ce-O-Ta,3,CeTaO4
0.0,Ce-O-Ta-Ti,4,CeTaTiO6
0.0,Ce-Te,2,CeTe
0.0,Ce-Te,2,CeTe2
0.0,Ce-Te,2,CeTe3
0.0,Ce-Cl-Te,3,CeTeCl
0.0139999999999993,Ce-Cl-Te,3,CeTeCl
0.0,Ce-Th,2,CeTh
2.0368000000000004,Ce-O-Th,3,CeTh2O6
1.8351,Ce-O-Th,3,CeTh2O6
0.0,Ce-S-Th,3,CeTh2S3
0.0,Ce-Th,2,CeTh3
0.0,Al-Ce-Th,3,CeTh3Al2
2.1217,Ce-O-Th,3,CeTh3O8
1.7800000000000002,Ce-O-Th,3,CeTh3O8
1.4813,Ce-O-Th,3,CeTh4O10
1.9639999999999995,Ce-O-Th,3,CeTh9O20
0.0,B-Ce-Th,3,CeThB12
0.0,B-Ce-Th,3,CeThB8
0.0,C-Ce-Th,3,CeThC2
0.0,C-Ce-N-Th,4,CeThCN
0.0,Ce-N-Th,3,CeThN2
1.6536000000000008,Ce-O-Th,3,CeThO4
0.0,Ce-S-Th,3,CeThS2
0.0,Ce-Si-Th,3,CeThSi4
1.8584,Ce-O-Ti,3,CeTi2O6
1.4954,Ce-O-Ti,3,CeTi2O6
0.0,Ce-Fe-Ti,3,CeTiFe11
0.0,Ce-Ge-Ti,3,CeTiGe
0.0,Ce-Ge-Ti,3,CeTiGe3
0.0,Ce-Nb-O-Ti,4,CeTiNbO6
0.0,Ce-O-Ti,3,CeTiO3
0.0,Ce-Tl,2,CeTl
0.0,Ce-O-Tl-W,4,CeTl(WO4)2
0.0,Ce-In-Se-Tl,4,CeTl2InSe4
0.0,Ce-Tl,2,CeTl3
0.0,Ag-Ce-Tl,3,CeTlAg2
0.0,Au-Ce-Tl,3,CeTlAu2
0.0,Cd-Ce-Tl,3,CeTlCd
0.0,Ce-Pd-Tl,3,CeTlPd
0.0,Ce-Se-Tl,3,CeTlSe2
0.0,Ce-Te-Tl,3,CeTlTe2
0.0,Ce-Tl-Zn,3,CeTlZn
0.0,Ce-Tm,2,CeTm3
0.0,Ce-S-Tm,3,CeTm4S7
0.0,Ce-In-Tm,3,CeTmIn2
0.0,Ce-Mg-Tm,3,CeTmMg2
0.0947999999999993,Ce-O-Tm,3,CeTmO3
0.0,Au-Ce-Pt-U,4,CeU(Pt4Au)2
0.0,Ce-O-U,3,CeU2O6
0.0,Al-Ce-U,3,CeU3Al8
0.0,C-Ce-U,3,CeU4C5
0.0,Ce-N-U,3,CeU4N5
0.0,Ce-O-U,3,CeU4O10
0.0,Ce-O-U,3,CeU5O12
0.0,B-Ce-U,3,CeUB8
0.0,C-Ce-U,3,CeUC4
0.0,C-Ce-N-U,4,CeUCN
0.0,Ce-Fe-U,3,CeUFe4
0.0,Ce-N-U,3,CeUN2
0.0,Ce-O-U,3,CeUO4
0.0,Ce-Si-U,3,CeUSi4
0.0,Ce-Te-U,3,CeUTe6
0.0,Ce-U-Zn,3,CeUZn17
0.0,Ce-O-V,3,CeVO2
0.0,Ce-O-V,3,CeVO3
0.2672000000000007,Ce-O-V,3,CeVO4
0.734,Ce-O-V,3,CeVO4
0.2014999999999993,Ce-O-V,3,CeVO4
0.0,Ce-O-V,3,CeVO4
0.3341000000000003,Ce-O-V,3,CeVO4
0.0,Ce-Y,2,CeY
0.0,Al-Ce-Pd-Y,4,CeY(AlPd)2
0.0,Ce-Ga-Pd-Y,4,CeY(GaPd2)2
0.0,Ce-Ge-Pt-Y,4,CeY(GePt)4
0.0,Ce-Mg-Ni-Y,4,CeY(MgNi4)2
0.0,Al-Ce-Pd-Y,4,CeY2(AlPd)3
0.0,Ce-Y,2,CeY3
0.0,Ce-Mg-Y,3,CeY4Mg5
0.0,Ce-Rh-Y,3,CeY4Rh5
0.0,Ce-S-Y,3,CeY4S7
0.0,Ce-Y-Zn,3,CeY4Zn5
0.0,Al-Ce-Y,3,CeYAl4
0.0,C-Ce-Y,3,CeYC4
0.0,Ce-Co-Y,3,CeYCo17
0.0,Ce-Co-Y,3,CeYCo4
0.0,Ce-Cu-Y,3,CeYCu4
0.0,Ce-Fe-Y,3,CeYFe17
0.0,Ce-Fe-Y,3,CeYFe4
0.0,Ce-In-Y,3,CeYIn2
0.0,Ce-In-Y,3,CeYIn6
0.0,Ce-Mg-Y,3,CeYMg14
0.0,Ce-Mg-Y,3,CeYMg2
0.0,Ce-Mg-Y,3,CeYMg4
0.0,Ce-Mg-Y,3,CeYMg6
0.0,Ce-Ni-Y,3,CeYNi4
0.0,Ce-Pd-Y,3,CeYPd6
0.0,Ce-Rh-Y,3,CeYRh4
0.0,Ce-Tl-Y,3,CeYTl2
0.0,Ce-Y-Zn,3,CeYZn2
0.0,Ce-Zn,2,CeZn
0.0,Ce-Zn,2,CeZn11
0.0,Ce-Zn,2,CeZn2
0.0,Ag-Ce-Zn,3,CeZn2Ag
0.0,As-Ce-O-Zn,4,CeZn2AsO2
0.0,Ce-Co-Zn,3,CeZn2Co
0.0,Ce-Fe-Zn,3,CeZn2Fe
0.0,Ce-Ni-Zn,3,CeZn2Ni
0.0,Ce-Ni-Zn,3,CeZn2Ni3
0.0,Ce-O-P-Zn,4,CeZn2PO2
0.0,Ce-Zn,2,CeZn3
0.0,Ce-Cu-Zn,3,CeZn3Cu2
0.0,Ce-Pd-Zn,3,CeZn3Pd2
0.0,Ce-Ni-Zn,3,CeZn4Ni
0.0,Ce-Zn,2,CeZn5
0.0,Ag-As-Ce-Zn,4,CeZnAgAs2
0.0,Ag-Ce-P-Zn,4,CeZnAgP2
0.0,Au-Ce-Zn,3,CeZnAu
0.0,Au-Ce-Zn,3,CeZnAu2
0.0,Ce-Co-Zn,3,CeZnCo2
0.0,Ce-Cu-P-Zn,4,CeZnCuP2
0.0,Ce-Ga-Zn,3,CeZnGa
0.0,Ce-Ga-Zn,3,CeZnGa3
0.0,Ce-Ge-Zn,3,CeZnGe
0.0,Ce-In-Zn,3,CeZnIn
0.0,Ce-Ni-Zn,3,CeZnNi
0.0,Ce-Ni-Zn,3,CeZnNi2
0.0,Ce-Ni-Zn,3,CeZnNi4
0.0,Ce-O-P-Zn,4,CeZnPO
0.0,Ce-Pd-Zn,3,CeZnPd
0.0,Ce-Pt-Zn,3,CeZnPt
0.0,Ce-Rh-Zn,3,CeZnRh
0.0,Ce-O-Sb-Zn,4,CeZnSbO
0.0,Ce-Si-Zn,3,CeZnSi
0.0,Ce-Sn-Zn,3,CeZnSn
1.9568000000000003,Ce-O-Zr,3,CeZr11O24
0.3153000000000001,Ce-F-Zr,3,CeZr2F11
1.9108,Ce-O-Zr,3,CeZr2O6
0.0,Ce-Mn-Zr,3,CeZr3Mn8
1.5300000000000002,Ce-O-Zr,3,CeZr3O8
2.1872000000000003,Ce-O-Zr,3,CeZr3O8
2.1318,Ce-O-Zr,3,CeZr3O8
2.069500000000001,Ce-O-Zr,3,CeZr4O10
1.7935000000000003,Ce-O-Zr,3,CeZr7O16
1.9389,Ce-O-Zr,3,CeZr7O16
2.264,Ce-O-Zr,3,CeZr7O16
2.2773000000000003,Ce-O-Zr,3,CeZr9O20
0.1854,Ce-F-Zr,3,CeZrF7
1.7012,Ce-O-Zr,3,CeZrO4
1.7356999999999996,Ce-O-Zr,3,CeZrO4
1.9109,Ce-O-Zr,3,CeZrO4
0.5462000000000002,Cl-F-O,3,Cl(OF)2
2.2818,Cl,1,Cl2
2.563,Cl,1,Cl2
1.0529000000000002,Cl-O,2,Cl2O
3.6753,Cl-O,2,Cl2O7
2.0897,Cl-F,2,ClF
2.6321000000000003,Cl-F,2,ClF3
2.5175,Cl-F,2,ClF3
3.0868,Cl-F,2,ClF5
0.0,Cl-O,2,ClO
0.9646,Cl-O,2,ClO2
0.0,Cl-O,2,ClO3
1.2103000000000002,Cl-O,2,ClO3
0.0,Cl-O,2,ClO5
0.5363,Cl-O,2,ClO5
0.0,Cl-O,2,ClO6
3.6499,Cl-F-O,3,ClOF3
0.0,Co,1,Co
1.4247,As-Co-O,3,Co(AsO2)2
2.0657,As-Co-O,3,Co(AsO3)2
0.0,B-Co-Mo,3,Co(BMo)2
0.0,B-Co-Mo,3,Co(BMo)3
2.0693999999999995,B-Co-O,3,Co(BO2)2
0.0,B-Co-Rh,3,Co(BRh2)3
0.0,B-Co-W,3,Co(BW)2
0.0,B-Co-W,3,Co(BW)3
0.0,Bi-Co-O,3,Co(BiO3)2
0.3973000000000002,Br-Co-O,3,Co(BrO3)2
0.033,C-Co-N,3,Co(C2N3)2
0.5397000000000001,C-Co-O,3,Co(C2O3)2
0.8634,C-Co-N,3,Co(C4N3)2
0.5193999999999999,C-Co-N,3,Co(CN)2
0.0,C-Co-N,3,Co(CN)2
0.0,C-Co-N,3,Co(CN)6
0.0,C-Co-O,3,Co(CO)4
0.0,C-Co-O,3,Co(CO3)2
0.5841999999999998,C-Co-O,3,Co(CO3)2
0.0,Cl-Co-O,3,Co(ClO)2
0.0,Cl-Co-O,3,Co(ClO3)2
0.0,Co-Cu-O,3,Co(CuO2)4
0.0,Co-Cu-O,3,Co(CuO3)2
0.0,Co-Ge-O,3,Co(GeO3)2
0.0156,Co-Ge-O,3,Co(GeO3)2
0.0338,Br-Co-H,3,Co(H3Br)2
0.3544,Cl-Co-H,3,Co(H3Cl)2
2.2674,Co-H-O,3,Co(HO)2
2.3295000000000003,Co-H-O,3,Co(HO)2
2.5222,Co-H-O,3,Co(HO)2
2.3933,Co-H-O,3,Co(HO)2
2.3852,Co-H-O,3,Co(HO)2
2.2151,Co-H-O,3,Co(HO)2
2.4449,Co-H-O,3,Co(HO)2
2.0404,Co-H-O,3,Co(HO)2
2.3773,Co-H-O,3,Co(HO)2
0.0,Co-I-N,3,Co(IN2)3
0.0,Co-I-N,3,Co(IN3)2
0.2200999999999995,Co-I-O,3,Co(IO3)2
0.0,Co-I-O,3,Co(IO3)2
0.1676999999999999,Co-I-O,3,Co(IO4)2
0.0,Co-I-O,3,Co(IO5)2
0.0,Co-Mo-S,3,Co(MoS2)2
0.0,Cl-Co-N,3,Co(N2Cl)3
0.0,Cl-Co-N,3,Co(N3Cl)2
0.0927,Co-N-O,3,Co(N3O4)3
1.8306,Co-N-O,3,Co(NO3)2
0.0,Co-N-O,3,Co(NO4)2
0.0,Co-N-O,3,Co(NO5)2
0.0,Co-N-Ni,3,Co(NiN)2
0.0,Co-Ni-O,3,Co(NiO2)2
0.2702,Co-Ni-O,3,Co(NiO2)4
0.0,Co-Ni-S,3,Co(NiS2)2
0.0,Co-Ni-Se,3,Co(NiSe2)2
0.0,Co-F-O,3,Co(O2F)2
1.7124,Co-O-P,3,Co(PO2)2
1.6574,Co-O-P,3,Co(PO2)2
2.6019000000000005,Co-O-P,3,Co(PO3)2
0.9751,Co-O-P,3,Co(PO3)3
0.0,Co-O-P,3,Co(PO3)4
0.2670999999999999,Co-O-P,3,Co(PO3)4
0.4719,Co-O-P,3,Co(PO3)4
0.0,Co-O-P,3,Co(PO5)2
0.1149,Co-N-Pb,3,Co(PbN)3
0.0,Co-N-Pd,3,Co(PdN)2
0.0,Co-Pd-Se,3,Co(PdSe)2
0.1366000000000005,Co-O-Pt,3,Co(PtO2)3
0.0,Co-O-Re,3,Co(ReO3)2
0.0,Co-O-Re,3,Co(ReO4)2
0.0,Co-O-Re,3,Co(ReO6)2
0.0,Co-O-Rh,3,Co(RhO2)2
0.0,Co-O-Rh,3,Co(RhO3)2
0.0381999999999997,Co-Rh-S,3,Co(RhS2)2
0.0,Co-Rh-Se,3,Co(RhSe2)2
0.0,Co-O-S,3,Co(SO4)2
0.0,Co-O-Sb,3,Co(SbO2)2
0.0,Co-O-Sb,3,Co(SbO3)2
0.3002,Co-O-Se,3,Co(SeO4)2
0.4162000000000001,Co-O-Si,3,Co(SiO3)2
0.3994,Co-O-Si,3,Co(SiO3)2
1.2632000000000003,Co-P-Si,3,Co(SiP)3
0.0,Co-Se-Si,3,Co(SiSe2)2
0.0,Co-Pd-Te,3,Co(TePd)2
0.1016999999999999,Co-O-W,3,Co(WO4)2
0.0,Co-O-W,3,Co(WO4)2
1.4422999999999997,Co-Ge-O,3,Co10Ge3O16
0.0,C-Co-N,3,Co11(CN5)2
0.0,B-Co-O-Sb,4,Co11B4SbO20
0.0,Co-Cu-O,3,Co11CuO16
0.0,C-Co-Ge,3,Co12Ge4C
0.4835,Co-O,2,Co15O28
0.0,B-Co-Si,3,Co19(Si2B)4
0.0,C-Co-N,3,Co2(CN2)3
0.8468,C-Co-N,3,Co2(CN2)3
0.8501,C-Co-O,3,Co2(CO3)3
0.0,Co-Ge-S,3,Co2(GeS)3
0.4141,Co-O-S,3,Co2(SO4)3
0.0,B-Co-Mo,3,Co21(B3Mo)2
0.0,B-Co-Sb,3,Co21(B3Sb)2
0.0,B-Co-W,3,Co21(B3W)2
0.0,B-Co-Ge,3,Co21(GeB3)2
0.0,B-Co-Re,3,Co21(ReB3)2
0.0,B-Co-Sn,3,Co21(SnB3)2
0.0,B-Co-Sb,3,Co22B6Sb
0.0,B-Co,2,Co23B6
0.3795000000000001,Ag-Co-O-Sb,4,Co2Ag3SbO6
0.0,Ag-Co-N,3,Co2AgN3
0.0,As-Co,2,Co2As
1.9352,As-Co-O,3,Co2As2O5
1.8642,As-Co-O,3,Co2As2O7
1.9878000000000005,As-Co-O,3,Co2As2O7
1.9929000000000008,As-Co-O,3,Co2As2O7
0.0,As-Co-O,3,Co2As2O7
1.5277000000000005,As-Co-O,3,Co2As2O7
0.0,As-Cl-Co-O,4,Co2AsClO4
1.9639,As-Co-H-O,4,Co2AsHO5
0.2017,As-Co-O,3,Co2AsO5
0.0,B-Co,2,Co2B
0.0,B-Co-O,3,Co2B2O5
0.0,B-Co-Mo,3,Co2B4Mo
0.4255999999999997,B-Co-O,3,Co2BO4
2.0165,B-Bi-Co-O-P,5,Co2BiB(PO5)2
0.0,C-Co,2,Co2C
0.7283000000000001,C-Co-O,3,Co2C2O7
0.5665999999999999,C-Co-O,3,Co2C2O7
0.0,Cl-Co-O,3,Co2ClO3
0.0,Co-Cu-Ge,3,Co2CuGe2
0.0,Co-Cu-N,3,Co2CuN2
0.0,Co-Cu-O,3,Co2CuO4
0.0,Co-Cu-S,3,Co2CuS4
0.0,Co-Ge,2,Co2Ge
0.0,Co-Ge-O,3,Co2GeO4
2.3652,C-Co-H-O,4,Co2H2CO5
2.6535,Co-H-N-O-S,5,Co2H31S2N9O11
0.4691000000000001,Co-Hg-O,3,Co2HgO4
0.0,Co-Hg-O,3,Co2HgO4
0.0,Co-Mo,2,Co2Mo3
0.0,Co-Mo-N,3,Co2Mo3N
0.0,Co-Mo-O,3,Co2Mo3O8
0.0,C-Co-Mo,3,Co2Mo4C
0.0,Co-Mo-N,3,Co2Mo4N
0.0,Co-Mo-S,3,Co2MoS4
0.0,Co-N,2,Co2N
0.0,Co-N-O,3,Co2NO6
0.0,Co-Ni-Te,3,Co2Ni2Te5
0.0,Co-Ni-O-P-Sb,5,Co2Ni3Sb(PO4)6
0.0,Co-N-Ni,3,Co2NiN2
0.0,Co-Ni-O,3,Co2NiO4
0.5621999999999998,Co-Ni-O,3,Co2NiO4
0.0,Co-Ni-O,3,Co2NiO6
0.0,Co-Ni-S,3,Co2NiS4
0.0,Co-Ni-Se,3,Co2NiSe4
0.1538000000000001,Co-O,2,Co2O3
0.0,Co-F-O,3,Co2O3F
0.0623,Co-F-O,3,Co2O3F
0.0102999999999999,Co-F-O,3,Co2O3F
0.0217999999999998,Co-F-O,3,Co2O3F
0.3538000000000001,Co-F-O,3,Co2OF3
0.1095,Co-F-O,3,Co2OF3
0.4216999999999999,Co-F-O,3,Co2OF3
0.0769999999999999,Co-F-O,3,Co2OF3
0.0,Co-F-O,3,Co2OF3
0.3415000000000001,Co-F-O,3,Co2OF3
0.6714,Co-F-O,3,Co2OF3
0.2624999999999999,Co-F-O,3,Co2OF3
0.6955,Co-F-O,3,Co2OF3
0.4957,Co-F-O,3,Co2OF3
0.5688,Co-F-O,3,Co2OF3
0.0,Co-P,2,Co2P
2.6443000000000003,Co-H-O-P-Pb,5,Co2P2H4PbO10
2.2685,Co-O-P,3,Co2P2O7
0.9399000000000002,Co-O-P,3,Co2P2O7
2.0784,Co-O-P,3,Co2P2O7
0.9363,Co-O-P,3,Co2P2O7
0.0,Co-H-N-O-P,5,Co2P3H11N2O9
0.1045,Co-O-P,3,Co2P3O10
0.0,Co-O-P,3,Co2P3O10
0.516,Co-O-P,3,Co2P3O10
2.6302000000000003,Cl-Co-O-P,4,Co2PClO4
2.4941000000000004,Co-H-O-P,4,Co2PHO5
2.9575000000000005,Co-F-O-P,4,Co2PO4F
0.0,Co-O-P,3,Co2PO5
0.0,Co-P-S,3,Co2PS3
0.0,Co-N-Pb,3,Co2PbN2
0.0,Co-Pd,2,Co2Pd
0.0,B-Co-Re,3,Co2Re5B4
0.0,Co-Rh-S,3,Co2RhS4
0.0,Co-N-Ru,3,Co2RuN3
0.0,Co-O-Ru,3,Co2RuO4
0.0,Co-S,2,Co2S3
0.7709999999999999,Co-O-Sb,3,Co2Sb2O7
0.0,As-Co-Sb,3,Co2SbAs
0.0,Co-N-Sb,3,Co2SbN3
0.0,Co-O-Sb,3,Co2SbO6
0.0,Co-Sb-Te,3,Co2SbTe
0.0,Co-Si,2,Co2Si
0.0,Co-Si,2,Co2Si3
0.0,Co-Ge-Si,3,Co2SiGe
1.3083999999999998,Co-O-Si,3,Co2SiO4
0.0,Co-O-Si,3,Co2SiO4
0.0,Co-Sn,2,Co2Sn
0.0,Co-O-Sn,3,Co2SnO4
0.0,Co-O-Tc,3,Co2TcO4
2.4752,Co-O-Te,3,Co2Te3O8
0.0,Cl-Co-O-Te,4,Co2TeCl2O3
0.0,C-Co-W,3,Co2W4C
0.0,As-Co-O,3,Co3(AsO4)2
1.6742000000000004,As-Co-O,3,Co3(AsO4)2
0.0,B-Co-O,3,Co3(BO3)2
0.0,Bi-Co-N,3,Co3(BiN2)2
0.0,Co-Ni-S,3,Co3(Ni3S4)2
0.0,Co-F-O,3,Co3(O2F)2
0.3394,Co-F-O,3,Co3(OF2)2
0.0042999999999999,Co-F-O,3,Co3(OF2)2
0.4456000000000001,Co-F-O,3,Co3(OF2)2
0.0,Co-F-O,3,Co3(OF2)2
0.1682999999999999,Co-F-O,3,Co3(OF2)2
0.0430000000000001,Co-F-O,3,Co3(OF2)2
1.1594,Co-F-O,3,Co3(OF2)2
0.0821999999999998,Co-F-O,3,Co3(OF2)2
0.1619999999999999,Co-F-O,3,Co3(OF2)2
0.0247000000000001,Co-F-O,3,Co3(OF2)2
0.4660999999999999,Co-O-P,3,Co3(P2O7)2
0.0969999999999999,Co-O-P,3,Co3(P2O7)2
2.6933,Co-O-P,3,Co3(PO4)2
2.5122,Co-O-P,3,Co3(PO4)2
1.636,Co-O-P,3,Co3(PO4)2
0.0,Co-O-P,3,Co3(PO4)4
0.0,Co-O-P,3,Co3(PO5)2
0.0,Co-O-P,3,Co3(PO8)2
0.0,B-Co-Re,3,Co3(ReB)4
0.0,Co-S-Sn,3,Co3(SnS)2
0.0,C-Co-W,3,Co3(W5C2)2
0.0,Ag-As-Co-O,4,Co3Ag(AsO4)3
0.0,Ag-Co-H-O-P,5,Co3Ag2P3HO12
2.5163,Ag-Co-H-O-P,5,Co3AgP3(HO6)2
2.9265000000000003,As-Co-H-O,4,Co3As2(HO)16
0.0,B-Co,2,Co3B
2.2683000000000004,B-Cl-Co-O,4,Co3B7ClO13
2.2509,B-Co-I-O,4,Co3B7IO13
2.2897000000000003,B-Co-F-O,4,Co3B7O13F
0.0,B-Co-O,3,Co3BO5
0.0211000000000001,B-Co-O-P,4,Co3BPO7
0.0033000000000003,B-Co-O-P,4,Co3BPO7
0.0,Bi-Co,2,Co3Bi
0.0,Bi-Co-N,3,Co3Bi3N5
0.0,Bi-Co-O,3,Co3BiO8
0.0,C-Co,2,Co3C
1.9791,C-Co-O-Se,4,Co3C2(SeO5)2
0.0,Cl-Co,2,Co3Cl
0.0,Co-Cu,2,Co3Cu
0.0,Co-Cu-O-P,4,Co3Cu(PO4)4
0.0,Co-Cu-S-Sn,4,Co3Cu(SnS4)2
0.4457000000000004,Co-Cu-O-Te,4,Co3Cu3(TeO6)2
0.0,Co-Cu-O-Te,4,Co3Cu3(TeO8)2
0.0,Co-Ge,2,Co3Ge2
0.0,Co-Ge-N,3,Co3Ge6N11
0.0,Co-H,2,Co3H
2.486,Co-H-O-Se,4,Co3H2Se3O10
0.0,Co-I,2,Co3I
0.0,Co-Ir,2,Co3Ir
0.0,Co-Mo,2,Co3Mo
0.0,C-Co-Mo,3,Co3Mo3C
0.0,Co-Mo-N,3,Co3Mo3N
0.0,Co-N,2,Co3N
0.0,Co-Ni,2,Co3Ni
0.0,Co-Ni-O-P,4,Co3Ni(PO4)4
0.0,Co-Ni-O-Te,4,Co3Ni2Te3O16
0.1646999999999998,Co-Ni-O-Te,4,Co3Ni3(TeO8)2
0.0,Co-Ni-S,3,Co3Ni3S8
0.0,Co-Ni-P,3,Co3Ni9P4
0.9434,Co-Ni-O,3,Co3NiO8
0.0,Co-Ni-O,3,Co3NiO8
0.0,Co-Ni-Sb,3,Co3NiSb12
0.0,Co-O,2,Co3O4
0.0,Co-F-O,3,Co3O5F
0.4983999999999999,Co-F-O,3,Co3OF5
0.6702,Co-F-O,3,Co3OF5
0.1066999999999999,Co-F-O,3,Co3OF5
1.1726,Co-F-O,3,Co3OF5
0.0,Co-F-O,3,Co3OF5
0.3523999999999999,Co-F-O,3,Co3OF5
0.0861999999999999,Co-F-O,3,Co3OF5
1.1396,Co-F-O,3,Co3OF5
0.0588999999999999,Co-F-O,3,Co3OF5
0.8431,Co-F-O,3,Co3OF5
0.4992999999999999,Co-F-O,3,Co3OF5
0.1547,Co-F-O,3,Co3OF5
0.9779,Co-F-O,3,Co3OF5
0.9136,Co-F-O,3,Co3OF5
0.0,Co-Os,2,Co3Os
0.0,Co-P,2,Co3P
0.0,Co-H-O-P,4,Co3P2(H2O5)2
2.3677,Co-H-O-P,4,Co3P2(HO)16
3.0652000000000004,Co-O-P-Pb,4,Co3P4PbO14
0.1457,Co-O-P-W,4,Co3P6WO24
0.0,Co-P-W,3,Co3PW2
0.0,Co-N-Pb,3,Co3Pb3N5
0.0,Co-Pt,2,Co3Pt
0.0,Co-F-Pt,3,Co3PtF6
0.0,B-Co-Re,3,Co3Re25B12
0.0,B-Co-Re,3,Co3ReB4
0.0,Co-Rh,2,Co3Rh
0.0,Co-Ru,2,Co3Ru
0.0,Co-S,2,Co3S
0.0,Co-S,2,Co3S4
0.1367000000000002,Co-O-P-Sb,4,Co3Sb(PO4)4
0.0,Co-N-Sb,3,Co3SbN
0.2272000000000003,Co-O-Sb,3,Co3SbO8
0.0,Co-O-Sb,3,Co3SbO8
0.0,Co-Se,2,Co3Se
0.0,Co-Se,2,Co3Se4
0.0,Co-Si,2,Co3Si
0.0,Co-N-Si,3,Co3Si6N11
0.0,Co-Ge-Si,3,Co3SiGe2
0.0,Co-Mo-Si,3,Co3SiMo2
0.0,Co-Sn,2,Co3Sn
0.1886000000000001,Co-O-P-Sn,4,Co3Sn(PO4)4
0.0,Co-Sn,2,Co3Sn2
0.0,C-Co-Sn,3,Co3SnC
0.0,Co-O-Sn,3,Co3SnO8
0.0,Co-Te,2,Co3Te
0.0,Co-O-P-Te,4,Co3Te2(PO7)2
0.6437000000000002,Co-O-Te,3,Co3TeO8
0.3433999999999999,Co-O-Te,3,Co3TeO8
0.7554999999999998,Co-O-Te,3,Co3TeO8
0.4005000000000001,Co-O-Te,3,Co3TeO8
0.1418000000000001,Co-O-Te,3,Co3TeO8
0.4911999999999998,Co-O-Te,3,Co3TeO8
0.0,Co-O-Te,3,Co3TeO8
0.0,Co-W,2,Co3W
0.0,C-Co-W,3,Co3W3C
0.0,Co-N-W,3,Co3W3N
0.0,C-Co-W,3,Co3W9C4
0.0,Co-O-W,3,Co3WO8
0.0,Co-Cu-O,3,Co4(CuO4)3
0.1667,Co-Cu-O,3,Co4(CuO4)3
0.0,B-Co,2,Co4B
3.0013,B-Co-O,3,Co4B6O13
0.0,C-Co-N,3,Co4CN4
0.0,Co-Cu-Ni-S,4,Co4CuNiS8
0.0,Co-Ge,2,Co4Ge
0.0,Co-Ge-N,3,Co4GeN4
0.0,Co-H,2,Co4H
0.0,Co-Ir-N,3,Co4IrN4
0.0121,Co-Mo-O,3,Co4Mo4O19
0.0,Co-N,2,Co4N
0.9011,Co-Ni-O,3,Co4NiO8
0.0,Co-Ni-O,3,Co4NiO8
0.0,Co-Ni-Sb,3,Co4NiSb12
0.3314000000000001,Co-F-O,3,Co4OF11
0.6344,Co-F-O,3,Co4OF11
0.0,Co-Os,2,Co4Os
0.0980999999999996,Co-N-P-S,4,Co4P6SN12
0.0,Co-Ru,2,Co4Ru
0.0,Co-N-Ru,3,Co4RuN4
0.0,Co-O-Sb,3,Co4SbO8
0.0,Co-N-Sn,3,Co4SnN4
0.0,Co-Sb-Sn,3,Co4SnSb12
0.7538,Co-O-Te,3,Co4TeO8
0.0,Co-O-Te,3,Co4TeO8
0.0,Bi-Co-O,3,Co5(Bi2O5)4
0.0395000000000003,Bi-Co-O,3,Co5(Bi2O5)4
0.0,Co-Ge-N,3,Co5(GeN3)2
0.0,As-Co-Sn,3,Co5(SnAs)2
0.0,Co-Sb-Sn,3,Co5(SnSb)2
0.0,As-Co,2,Co5As2
0.0,B-Co,2,Co5B16
0.0,B-Co-P,3,Co5B2P
0.0,Bi-Co-O,3,Co5BiO12
0.0,Co-Cu-N,3,Co5CuN4
0.0,Co-Cu-O,3,Co5CuO8
0.0,Co-Cu-S,3,Co5CuS8
0.0,Co-Ge,2,Co5Ge7
0.0,Co-N-Ni,3,Co5NiN4
1.1427999999999998,Co-Ni-O,3,Co5NiO12
0.0,Co-Ni-S,3,Co5NiS8
0.0,Co-O,2,Co5O7
0.0,Co-O,2,Co5O8
0.0,Co-O-Ru,3,Co5RuO8
0.0,Co-O-Sb,3,Co5SbO12
0.2086999999999998,Co-O-Sb,3,Co5SbO8
0.5872999999999999,Co-O-Sb,3,Co5SbO8
0.6377000000000002,Co-O-Sb,3,Co5SbO8
0.0672000000000001,Co-O-Sb,3,Co5SbO8
0.0,Co-O-Sb,3,Co5SbO8
0.3912000000000004,B-Co-O-Sn,4,Co5Sn(BO5)2
0.9953999999999998,Co-O-Sn,3,Co5SnO12
0.1461000000000005,Co-O-Te,3,Co5Te3O16
0.0,Co-Te,2,Co5Te6
0.0,B-Co-P,3,Co6BP
0.0,C-Co-Mo,3,Co6Mo6C
0.0,Co-F-O,3,Co6O5F7
0.3609,Co-F-O,3,Co6O5F7
0.0871999999999999,Co-F-O,3,Co6O5F7
0.6033000000000002,Co-F-O,3,Co6O5F7
0.167,Co-F-O,3,Co6O5F7
0.0488999999999999,Co-F-O,3,Co6O5F7
0.2675999999999998,Co-F-O,3,Co6O7F5
0.0,Co-F-O,3,Co6O7F5
0.6397999999999999,Co-F-O,3,Co6OF11
0.5509,Co-F-O,3,Co6OF11
0.5147,Co-F-O,3,Co6OF11
0.7002000000000002,Co-F-O,3,Co6OF11
0.6333,Co-F-O,3,Co6OF11
1.0381,Co-F-O,3,Co6OF11
0.0,C-Co-W,3,Co6W20C7
0.0,Co-N-W,3,Co6WN4
0.0,As-Co-O,3,Co7(AsO6)2
0.7440999999999995,As-Co-O,3,Co7(AsO6)2
0.1307999999999998,Co-O-Ru,3,Co7(RuO6)2
0.0,Co-O-Ru,3,Co7(RuO6)2
0.0,Co-O-Sb,3,Co7(SbO6)2
0.5510999999999999,Co-O-Sb,3,Co7(SbO6)2
0.5730999999999993,Co-O-Sb,3,Co7(SbO6)2
0.0,As-Co-Cu-H-O,5,Co7CuAs4(HO5)4
0.0,Co-Ge,2,Co7Ge4
0.0,Co-Mo,2,Co7Mo6
0.0,Co-Ni-P,3,Co7NiP4
0.1673,Co-O,2,Co7O12
0.0,Co-O,2,Co7O12
2.5609,Co-H-O-P,4,Co7P6(HO6)4
0.0,Co-W,2,Co7W6
0.1756999999999999,Bi-Co-O,3,Co8(BiO4)5
0.0,As-Co-O,3,Co8As3O16
0.0,Co-Rh-S,3,Co8RhS8
0.0,Co-Ru-S,3,Co8RuS8
0.0,Co-Cu-O,3,Co9Cu3O16
0.0,Co-O,2,Co9O13
0.0,Co-S,2,Co9S8
0.0,Co-Se,2,Co9Se8
0.0,Ag-Co-N-O,4,CoAg(N3O4)2
0.0,Ag-Co-S-Sn,4,CoAg2Sn3S8
3.4249,Ag-C-Co-N,4,CoAg3(CN)6
0.0,Ag-Co-F,3,CoAgF3
0.0,Ag-Co-N,3,CoAgN
0.0,Ag-Co-O,3,CoAgO2
1.1935000000000002,Ag-Co-O,3,CoAgO2
1.332,Ag-Co-O,3,CoAgO2
0.2622,Ag-Co-O,3,CoAgO2
0.0,Ag-Co-O,3,CoAgO3
1.7666000000000004,Ag-Co-O-P,4,CoAgPO4