eg,chemsys,nelements,formula
1.4184,F-Fe-Li-O,4,Li2FeO2F
1.9422,F-Fe-Li-O,4,Li2FeO2F
0.0652000000000001,Fe-Li-O,3,Li2FeO3
0.0,Fe-Li-O,3,Li2FeO3
0.0965999999999998,Fe-Li-O,3,Li2FeO3
1.0267,Fe-Li-O,3,Li2FeO3
1.9963,F-Fe-Li-O,4,Li2FeOF3
2.1822000000000004,F-Fe-Li-O,4,Li2FeOF3
2.2428,F-Fe-Li-O,4,Li2FeOF3
1.9802,F-Fe-Li-O,4,Li2FeOF3
1.9609,F-Fe-Li-O,4,Li2FeOF3
1.9018,Fe-H-Li-O-P,5,Li2FeP2HO8
0.0,Fe-Li-O-P,4,Li2FeP2O7
3.9467,Fe-Li-O-P,4,Li2FeP2O7
4.4589,Fe-Li-O-P,4,Li2FeP2O7
4.103,Fe-Li-O-P,4,Li2FeP2O7
1.911,C-Fe-Li-O-P,5,Li2FePCO7
0.5344,C-Fe-Li-O-P,5,Li2FePCO7
2.0804,C-Fe-Li-O-P,5,Li2FePCO7
3.7864,Fe-H-Li-O-P,5,Li2FePHO5
3.8225,Fe-H-Li-O-P,5,Li2FePHO5
3.3896,Fe-H-Li-O-P,5,Li2FePHO5
4.2299,F-Fe-Li-O-P,5,Li2FePO4F
3.709,F-Fe-Li-O-P,5,Li2FePO4F
2.1583,Fe-Li-O-P,4,Li2FePO5
2.3612,Fe-Li-O-P,4,Li2FePO5
1.8923,Fe-Li-O-P,4,Li2FePO5
0.0,Fe-Li-S,3,Li2FeS2
0.0104000000000001,Fe-Li-S,3,Li2FeS2
0.1633999999999997,Fe-Li-S,3,Li2FeS2
0.0644,Fe-Li-O-Si,4,Li2FeSi3O8
2.6144,Fe-Li-O-Si,4,Li2FeSi3O8
2.7788000000000004,Fe-Li-O-Si,4,Li2FeSi3O8
0.0,Fe-Li-O-Si,4,Li2FeSi3O8
0.0,Fe-Li-O-Si,4,Li2FeSi4O11
2.9997,Fe-Li-O-Si,4,Li2FeSiO4
3.2021,Fe-Li-O-Si,4,Li2FeSiO4
3.1236,Fe-Li-O-Si,4,Li2FeSiO4
3.3961,Fe-Li-O-Si,4,Li2FeSiO4
3.0614,Fe-Li-O-Si,4,Li2FeSiO4
2.6273,Fe-Li-O-Si,4,Li2FeSiO4
2.5809999999999995,Fe-Li-O-Si,4,Li2FeSiO4
2.852,Fe-Li-O-Si,4,Li2FeSiO4
2.3447,Fe-Li-O-Si,4,Li2FeSiO4
2.9237,Fe-Li-O-Si,4,Li2FeSiO4
3.0894000000000004,Fe-Li-O-Si,4,Li2FeSiO4
3.1415,Fe-Li-O-Si,4,Li2FeSiO4
2.6104000000000003,Fe-Li-O-Si,4,Li2FeSiO4
3.4058999999999995,Fe-Li-O-Si,4,Li2FeSiO4
2.8849,Fe-Li-O-Si,4,Li2FeSiO4
3.6475,Fe-Li-O-Si,4,Li2FeSiO4
2.8624,Fe-Li-O-Si,4,Li2FeSiO4
2.8767,Fe-Li-O-Si,4,Li2FeSiO4
0.0,Fe-Li-O-Si,4,Li2FeSiO5
1.7179000000000002,Fe-Li-O-Sn,4,Li2FeSnO4
0.0,Fe-Li-S-Sn,4,Li2FeSnS4
0.0,Fe-Li-O-Te,4,Li2FeTeO6
0.0854000000000001,Fe-Li-O-W,4,Li2FeWO6
0.0,Fe-Li-O-W,4,Li2FeWO6
0.0,Ga-Li,2,Li2Ga
2.1339,Ga-Ge-Li-S,4,Li2Ga2GeS6
0.1587,Ga-Li,2,Li2Ga7
0.0,Ag-Ga-Li,3,Li2GaAg
0.0,Au-Ga-Li,3,Li2GaAu
0.0,Cu-Ga-Li,3,Li2GaCu3
0.0,Cu-F-Ga-Li,4,Li2GaCuF6
0.0,Ga-Ir-Li,3,Li2GaIr
0.0,Ga-Li-Pd,3,Li2GaPd
0.0,Ga-Li-Pt,3,Li2GaPt
0.0,Ga-Li-Rh,3,Li2GaRh
0.0272000000000005,Ga-Li-Sb,3,Li2GaSb
0.0,Ga-Li-Si,3,Li2GaSi
0.0,Gd-In-Li,3,Li2GdIn
0.0,Gd-Li-Tl,3,Li2GdTl
3.3005000000000004,Ge-Li-O,3,Li2Ge2O5
0.0,Ge-Li-O,3,Li2Ge3O8
0.0,Au-Ge-Li,3,Li2GeAu
6.0486,F-Ge-Li,3,Li2GeF6
5.5194,F-Ge-Li,3,Li2GeF6
2.6889000000000003,Ge-Li-N,3,Li2GeN2
3.568,Ge-Li-O,3,Li2GeO3