eg,chemsys,nelements,formula
0.0,B-Co-Gd-Ni,4,GdCoNi3B
0.0,Co-Gd-O,3,GdCoO3
0.0,Co-Gd-Si,3,GdCoSi
0.0,Co-Gd-Si,3,GdCoSi3
0.5184000000000002,B-Cr-Gd-O,4,GdCr3(BO3)4
0.2551000000000005,B-Cr-Gd,3,GdCrB4
2.4125,Cr-Gd-Ge-O,4,GdCrGeO5
0.7847,Cr-Gd-O,3,GdCrO3
2.1708,Cr-Gd-O,3,GdCrO3
0.7395,Cr-Gd-O,3,GdCrO4
0.0,Cr-Gd-O,3,GdCrO4
2.6147,Cr-Gd-O-Te,4,GdCrTeO6
1.3853000000000004,Cr-Gd-O-Te,4,GdCrTeO6
0.0,Cu-Gd,2,GdCu
0.1414999999999997,Cu-Gd-O-W,4,GdCu(WO4)2
0.0,Cu-Gd,2,GdCu2
0.0,Au-Cu-Gd,3,GdCu4Au
0.0,Cu-Gd-Pd,3,GdCu4Pd
0.0,Cu-Gd,2,GdCu5
0.0,Cu-Gd-Se,3,GdCu5Se4
0.0,Cu-Gd-Sn,3,GdCu5Sn
0.0,Cu-Gd-Te,3,GdCu5Te4
0.0,Cu-Gd,2,GdCu6
0.0,As-Cu-Gd,3,GdCuAs2
0.0,Cu-Gd-Ge,3,GdCuGe
0.0,Cu-Gd-O,3,GdCuO3
0.0,Cu-Gd-Pb,3,GdCuPb
0.9113000000000008,Cu-Gd-S,3,GdCuS2
0.0,Cu-Gd-Sb,3,GdCuSb2
0.6894,Cu-Gd-Se,3,GdCuSe2
0.0,Cu-Gd-O-Se,4,GdCuSeO
0.0,Cu-Gd-Si,3,GdCuSi
0.0,Cu-Gd-Sn,3,GdCuSn
0.0,Dy-Gd,2,GdDy
0.0,Dy-Gd-Ni,3,GdDy3Ni4
0.0,Al-Dy-Gd,3,GdDyAl4
0.0,C-Dy-Gd,3,GdDyC4
0.0,Dy-Gd-In,3,GdDyIn2
0.0,Dy-Gd-Ir,3,GdDyIr2
0.0,Dy-Gd-Ni,3,GdDyNi2
0.0,Dy-Gd-Rh,3,GdDyRh2
0.0,Dy-Gd-Tl,3,GdDyTl2
0.0,Dy-Gd-Zn,3,GdDyZn2
0.0,Er-Gd,2,GdEr3
0.0,Er-Gd-Mn,3,GdEr3Mn8
0.0,Al-Er-Gd,3,GdEr4Al15
0.0,Al-Er-Gd,3,GdErAl6
0.0,Co-Er-Gd,3,GdErCo4
0.0,Er-Gd-Hg,3,GdErHg2
0.0,Er-Gd-In,3,GdErIn2
0.0,Er-Gd-Ir,3,GdErIr2
0.3657000000000003,Er-Gd-O,3,GdErO3
0.0,Er-Gd-Rh,3,GdErRh2
0.0,Er-Gd-Ru,3,GdErRu2
0.0,Er-Gd-Zn,3,GdErZn2
2.8622,F-Gd,2,GdF3
0.0,Fe-Gd-Mo-N,4,GdFe10Mo2N
0.0,Fe-Gd-W,3,GdFe11W
0.0,Fe-Gd,2,GdFe2
1.3175999999999997,Bi-Fe-Gd-O,4,GdFe2BiO6
0.0,C-Fe-Gd-Si,4,GdFe2SiC
0.9505,B-Fe-Gd-O,4,GdFe3(BO3)4
1.6060999999999996,Bi-Fe-Gd-O,4,GdFe4(BiO4)3
0.0,Cu-Fe-Gd-O,4,GdFe4(CuO4)3
0.0,B-Fe-Gd,3,GdFe4B
0.0,Fe-Gd,2,GdFe5
0.0,Fe-Gd-P,3,GdFe5P3
0.0,As-Fe-Gd-O,4,GdFeAsO
0.0,B-Fe-Gd,3,GdFeB4
0.0,C-Fe-Gd,3,GdFeC2
0.0,Fe-Gd-Ni,3,GdFeNi4
0.0,Fe-Gd-O,3,GdFeO3
0.0,Ga-Gd,2,GdGa
0.0,Ga-Gd,2,GdGa2
0.0,Co-Ga-Gd,3,GdGa2Co
0.0,Ga-Gd,2,GdGa3
2.6825,B-Ga-Gd-O,4,GdGa3(BO3)4
0.0,Ga-Gd-Os,3,GdGa3Os
0.0,Ga-Gd-Ru,3,GdGa3Ru
0.0,Ga-Gd,2,GdGa6
0.0,Ga-Gd-I,3,GdGaI
3.3962000000000003,Ga-Gd-O,3,GdGaO3
0.0,Ga-Gd-Pd,3,GdGaPd2
0.0,Ga-Gd-Rh,3,GdGaRh2
0.0,Gd-Ge,2,GdGe
0.0,Gd-Ge,2,GdGe2
0.0,Gd-Ge-Ir,3,GdGeIr
0.0,Gd-Ge-Pt,3,GdGePt
0.0,Gd-Ge-Rh,3,GdGeRh
0.0,Gd-Ge-Ru,3,GdGeRu
0.0,Gd-H,2,GdH2
3.0368,Cl-Gd-H-O,4,GdH2ClO2
3.1717000000000004,Gd-H-I-O,4,GdH2I3O10
0.0,Gd-H,2,GdH3
2.9525,C-Gd-H-N-O,5,GdH6C4NO9
2.8774,C-Gd-H-O-S,5,GdH7C2SO8
3.0353,C-Gd-H-N-O,5,GdH9C5(NO4)2
2.8483,C-Gd-H-O,4,GdHCO4
3.071400000000001,Gd-H-O,3,GdHO2
2.9383,Gd-H-O-S,4,GdHSO5
0.5979000000000001,Gd-H-Se,3,GdHSe
4.4446,F-Gd-Hf,3,GdHfF7
0.0,Gd-Hg,2,GdHg
0.0,Gd-Hg,2,GdHg3
0.0,Gd-Ho,2,GdHo3
0.0,Al-Gd-Ho,3,GdHoAl6
0.0,Gd-Ho-Ir,3,GdHoIr2
0.0,Gd-Ho-Tl,3,GdHoTl2
0.2522999999999999,Gd-I-O,3,GdIO
0.0,Gd-In,2,GdIn
0.0,Cu-Gd-In,3,GdIn2Cu9
0.0,Gd-In-Ni,3,GdIn2Ni9
0.0,Gd-In-Rh,3,GdIn2Rh
0.0,Gd-In,2,GdIn3
0.0,Gd-In-Rh,3,GdIn5Rh
0.0,Au-Gd-In,3,GdInAu
0.0,Au-Gd-In,3,GdInAu2
0.0,Cu-Gd-In,3,GdInCu2
0.0,Cu-Gd-In,3,GdInCu4
0.0,Gd-In-Ir,3,GdInIr
0.0,B-Hf-Ta,3,HfTaB4
0.0,C-Hf-Ta,3,HfTaC2
0.0,C-Hf-N-Ta,4,HfTaCN
0.0,Fe-Hf-Ta,3,HfTaFe4
0.0,Hf-N-Ta,3,HfTaN2
1.8989000000000005,Hf-N-O-Ta,4,HfTaNO3
2.8895,Hf-N-O-Ta,4,HfTaNO3
0.0,Hf-Re-Ta,3,HfTaRe2
0.0,Hf-Ru-Ta,3,HfTaRu2
0.0,Hf-Si-Ta,3,HfTaSi
0.0,Hf-Ta-Tc,3,HfTaTc2
0.0,B-C-Hf-Mo-Ta-Ti,6,HfTaTiB4MoC4
0.0,Hf-Ta-V,3,HfTaV4
0.0,Hf-Tc,2,HfTc
0.0,Hf-Tc,2,HfTc2
0.0,Hf-Mo-Tc,3,HfTc2Mo
0.0,Hf-Sb-Tc,3,HfTc2Sb
0.0,Hf-Sn-Tc,3,HfTc2Sn
0.0,Hf-Tc-W,3,HfTc2W
0.0,Hf-Te,2,HfTe2
0.0,Hf-Te,2,HfTe3
0.0,Hf-Te,2,HfTe5
0.0,Hf-Ru-Te,3,HfTeRu
0.0,Hf-S-Te,3,HfTeS
0.0,Hf-Se-Te,3,HfTeSe
0.9563,Hf-Se-Te,3,HfTeSe4
0.0,Hf-O-Th,3,HfThO3
0.0,Hf-Tc-Th,3,HfThTc2
0.0,Hf-Ti,2,HfTi
2.2028,Hf-O-Pb-Ti,4,HfTi(PbO3)2
1.8075,Hf-O-Sn-Ti,4,HfTi(SnO3)2
0.0,Hf-Ti,2,HfTi3
2.077699999999999,Hf-O-Pb-Ti,4,HfTi4(PbO3)5
2.0772999999999997,Hf-O-Pb-Ti,4,HfTi4(PbO3)5
0.0,B-Hf-Ti,3,HfTiB4
0.0,C-Hf-Ti,3,HfTiC2
0.0,C-Hf-N-Ti,4,HfTiCN
0.0,F-Hf-Ti,3,HfTiF6
0.0,Fe-Hf-Ti,3,HfTiFe4
0.0,Hf-Mo-Ti,3,HfTiMo4
0.0,Hf-N-Ti,3,HfTiN2
2.5991000000000004,Hf-O-Ti,3,HfTiO4
2.8259,Hf-O-Ti,3,HfTiO4
0.0,Hf-Ru-Ti,3,HfTiRu2
0.0,Hf-Se-Ti,3,HfTiSe4
0.0,Hf-Ti-W,3,HfTiW4
0.0,Hf-Ti-Zn,3,HfTiZn2
0.0,Hf-Tl,2,HfTl
0.6334000000000009,Hf-Pb-Se-Tl,4,HfTl2PbSe4
0.6963000000000004,Hf-Se-Tl,3,HfTl2Se3
0.0,Hf-Tl,2,HfTl3
4.9416,Cd-F-Hf-Tl,4,HfTlCdF7
0.7967000000000004,Cu-Hf-S-Tl,4,HfTlCuS3
0.4199999999999999,Cu-Hf-Se-Tl,4,HfTlCuSe3
4.7684,F-Hf-Tl,3,HfTlF5
0.0,C-Hf-Nb-U,4,HfU(NbC2)2
0.0,C-Hf-Ta-U,4,HfU(TaC2)2
0.0,Hf-Sb-U,3,HfU3Sb5
0.0,C-Hf-U,3,HfUC2
0.0,Hf-N-U,3,HfUN2
0.0,Hf-V,2,HfV2
0.0,Hf-N-V,3,HfV2N3
3.2213000000000003,F-Hf-V,3,HfVF6
0.0,Ge-Hf-V,3,HfVGe
0.0,Hf-P-V,3,HfVP
0.0,Hf-Si-V,3,HfVSi
0.0,Hf-W,2,HfW2
0.0,C-Hf-W,3,HfWC2
0.0,Hf-Zn,2,HfZn
0.0,Hf-Zn,2,HfZn2
0.0,Ga-Hf-Zn,3,HfZn2Ga
0.0,Hf-Zn,2,HfZn3
0.0,Au-Hf-Zn,3,HfZnAu2
0.0,Co-Hf-Zn,3,HfZnCo2
0.0,Cu-Hf-Zn,3,HfZnCu2
0.0,Hf-Ir-Zn,3,HfZnIr2
2.3179,Hf-N-Zn,3,HfZnN2
0.0,Hf-Ni-Zn,3,HfZnNi2
0.0,Hf-O-Zn,3,HfZnO3
0.0,Hf-Pd-Zn,3,HfZnPd2
0.0,Hf-Pt-Zn,3,HfZnPt2
0.0,Hf-Rh-Zn,3,HfZnRh2
0.0,Hf-Zr,2,HfZr
0.0,Co-Hf-Sb-Zr,4,HfZr(CoSb)2
0.0,Hf-Rh-Sb-Zr,4,HfZr(SbRh)2
0.0,C-Hf-U-Zr,4,HfZr2UC4
0.0,Hf-Zr,2,HfZr3
0.0,B-Hf-Zr,3,HfZrB4
0.0,C-Hf-Zr,3,HfZrC2
0.0,C-Hf-N-Zr,4,HfZrCN
0.0,Co-Hf-Zr,3,HfZrCo2
0.0,Co-Hf-Rh-Sb-Zr,5,HfZrCoSb2Rh
0.0,Fe-Hf-Zr,3,HfZrFe2
0.0,Fe-Hf-Zr,3,HfZrFe4
0.0,Hf-Mo-Zr,3,HfZrMo4
0.0,Hf-N-Zr,3,HfZrN2
0.0,Hf-Nb-Zr,3,HfZrNb2
3.5612,Hf-O-Zr,3,HfZrO4
3.4356,Hf-O-Zr,3,HfZrO4
3.8548,Hf-O-Zr,3,HfZrO4
3.5994,Hf-O-Zr,3,HfZrO4
0.0,Hf-Os-Zr,3,HfZrOs2
0.0,Hf-Ru-Zr,3,HfZrRu2
1.0865999999999998,Hf-S-Zr,3,HfZrS6
0.0,Hf-Tc-Zr,3,HfZrTc2
0.0,Hf-V-Zr,3,HfZrV4
0.0,Hf-W-Zr,3,HfZrW4
0.0,Hf-Zn-Zr,3,HfZrZn2
0.0,Hg,1,Hg
1.0394,Hg,1,Hg
0.2396999999999999,Hg,1,Hg
0.5904,Hg,1,Hg
0.2567,Hg,1,Hg
0.4712,Hg,1,Hg
0.409,Hg,1,Hg
0.0967,Hg,1,Hg
1.7611,Hg,1,Hg
0.3447,Hg,1,Hg
0.1301999999999999,Hg,1,Hg
0.7083000000000004,As-Hg-O,3,Hg(AsO3)2
1.5738,Au-F-Hg,3,Hg(AuF4)2
0.0,Bi-Hg-O,3,Hg(BiO3)2
1.1861000000000002,Bi-Hg-S,3,Hg(BiS2)2
3.599,C-F-Hg,3,Hg(C2F3)2
4.7489,C-Hg-N,3,Hg(CN)2
2.5757,C-Hg-O,3,Hg(CO2)2
2.4575,C-Hg-O,3,Hg(CO2)2
2.424,Cl-Hg-O,3,Hg(ClO3)2
0.0,Cl-Hg-O,3,Hg(ClO7)2
2.4467,Hg-I-O,3,Hg(IO3)2
0.0,Hg-Mo-S,3,Hg(Mo3S4)2
0.8311000000000001,Cl-Hg-N,3,Hg(NCl)2
0.1746000000000001,F-Hg-O,3,Hg(OF)2
0.5173000000000001,Hg-O-Sb,3,Hg(SbO3)2
0.0,Hg-O-Sb,3,Hg(SbO3)2
0.899,As-Br-Hg,3,Hg2As3Br
0.0,As-F-Hg,3,Hg2AsF6
0.0,B-Cl-Hg,3,Hg2BCl
0.0,Br-Hg-N,3,Hg2Br2N
0.6998000000000001,Br-Hg-N,3,Hg2BrN
2.0222,Cl-Hg-O,3,Hg2ClO
1.5862,Cl-Hg-O,3,Hg2ClO
2.0573,Cl-Hg-O,3,Hg2ClO
1.0221999999999998,Ge-Hg-O,3,Hg2GeO4
0.9469,Ge-Hg-O,3,Hg2GeO4
0.4336,Ge-Hg-Se,3,Hg2GeSe4
2.2149,Br-Hg-I,3,Hg2I3Br
2.2789,Br-Hg-I,3,Hg2IBr3
0.0,Hg-I-N,3,Hg2IN
0.9192,Hg-I-O,3,Hg2IO
1.9279,Hg-Mo-O,3,Hg2Mo2O7
2.1989,Hg-Mo-O,3,Hg2Mo2O7
1.5605,Hg-Mo-O,3,Hg2MoO4
0.0,Hg-N,2,Hg2N
1.5703,Hg-N-O,3,Hg2NO4
0.0,Hg-O-Os,3,Hg2Os2O7
1.8809,H-Hg-O-P,4,Hg2P2H4O9
2.8056,H-Hg-O-P,4,Hg2P2H6O7
1.4992,Hg-O-P,3,Hg2P2O7
1.4841999999999995,Hg-O-P,3,Hg2P2O7
1.8095,Hg-P-S,3,Hg2P2S7
1.1347,Cl-Hg-P,3,Hg2P3Cl
1.4683,Cl-Hg-P,3,Hg2PCl2
0.0,Hg-O-P,3,Hg2PO4
0.0,Hg-Pt,2,Hg2Pt
0.0,Hg-O-Pt,3,Hg2Pt2O7
0.0,Hg-Rh,2,Hg2Rh
1.9921,Hg-O-S,3,Hg2SO4
0.0,Hg-O-Sb,3,Hg2Sb2O7
0.0,F-Hg-Sb,3,Hg2SbF6
2.1898,Hg-O-Se,3,Hg2SeO3
2.3109,Hg-O-Se,3,Hg2SeO3
2.329,Hg-O-Se,3,Hg2SeO3
1.4363,Hg-O-Se,3,Hg2SeO4
0.0,Hg-S-Se,3,Hg2SeS
2.2142,Hg-O-Te,3,Hg2TeO3
0.5348000000000002,Hg-O-Te,3,Hg2TeO5
0.0,Hg-S-Te,3,Hg2TeS
0.0,Hg-Se-Te,3,Hg2TeSe
0.0,Hg-O-W,3,Hg2W2O7
1.8808,Hg-O-W,3,Hg2W2O7
2.2155,Hg-O-W,3,Hg2W2O7
2.0519,Hg-O-W,3,Hg2W2O7
1.6656000000000002,Hg-O-W,3,Hg2WO4
2.629,B-Hg-O,3,Hg3(BO3)2
0.3047,Cl-Hg-O,3,Hg3(ClO)2
0.5971,Cl-Hg-S,3,Hg3(SCl)2
1.9398,Cl-Hg-S,3,Hg3(SCl)2
1.8372,F-Hg-S,3,Hg3(SF)2
1.7701,Cl-Hg-Se,3,Hg3(SeCl)2
1.9752,F-Hg-Se,3,Hg3(SeF)2
1.7040000000000002,Br-Hg-Te,3,Hg3(TeBr)2
1.9134,Cl-Hg-Te,3,Hg3(TeCl)2
0.0,As-Hg,2,Hg3As
2.4844,As-H-Hg-O,4,Hg3As2(HO4)2
1.5137999999999998,As-Cl-Hg-S,4,Hg3AsS4Cl
0.0,Au-Hg,2,Hg3Au
0.0,B-Hg,2,Hg3B
0.0,Bi-Hg,2,Hg3Bi
2.7814,Bi-Cl-Hg-S,4,Hg3Bi2(SCl4)2
0.0,C-Hg,2,Hg3C
0.0,Cl-Hg,2,Hg3Cl
0.0,F-Hg,2,Hg3F
0.0,Ge-Hg,2,Hg3Ge
1.7372999999999998,H-Hg-O-S,4,Hg3H4S2O11
0.0,Hg-Ir,2,Hg3Ir
0.0,Cl-Hg-N-O,4,Hg3N2Cl8O
0.0,Hg-P,2,Hg3P
0.0,Hg-Pb,2,Hg3Pb
0.0,Hg-Pd,2,Hg3Pd
0.0,Hg-Pt,2,Hg3Pt
0.2250000000000001,F-Hg-Pt,3,Hg3PtF6
0.0,Hg-Rh,2,Hg3Rh
0.0,Hg-O-S,3,Hg3S2O11
0.5752,Hg-O-S,3,Hg3SO6
0.5891,Hg-O-S,3,Hg3SO6
0.0,Hg-Sb,2,Hg3Sb
1.8689,Hg-O-Se,3,Hg3Se3O10
0.0,Hg-O-Se,3,Hg3SeO6
0.4373,Hg-O-Se,3,Hg3SeO6
0.2036,F-Hg-O,3,Hg4OF6
1.5884999999999998,Hg-O-P,3,Hg4P2O7
0.0,Hg-Pt,2,Hg4Pt
0.0,H-Hg-O-Sb,4,Hg4SbHO6
0.0,Hg-O-Sb,3,Hg4SbO6
0.0,Br-Hg-O,3,Hg5(BrO2)2
0.0,Cl-Hg-O,3,Hg5(ClO)4
0.1861999999999999,Cl-Hg-O,3,Hg5(ClO2)2
0.0,Au-Hg,2,Hg5Au6
0.0,Cl-Hg-N,3,Hg5NCl11
0.0,Hg-Pd,2,Hg5Pd2
3.3206,As-F-H-Hg,4,HgAs2H2F14
1.2351,As-Hg-O,3,HgAsO3
0.1004999999999999,As-Hg-O,3,HgAsO4
0.0,As-Hg-O,3,HgAsO4
0.0,As-Hg-Pd,3,HgAsPd5
0.0,Au-Hg,2,HgAu3
0.0,Au-Hg,2,HgAu4
4.6143,B-C-Hg-N,4,HgB2(CN)8
1.7969,B-Hg-O,3,HgB4O7
0.0,B-Hg,2,HgB6
0.0,Bi-Hg,2,HgBi3
0.0,Bi-Hg-O,3,HgBiO3
2.2557,Br-Hg,2,HgBr
2.5527,Br-Hg,2,HgBr2
1.6827,Br-Hg,2,HgBr2
0.0,Br-Hg,2,HgBr3
0.0,Br-Hg-N-O,4,HgBr3NO
2.7804,Br-Cl-Hg,3,HgBrCl
2.5935,Br-Cl-Hg,3,HgBrCl
0.0,Br-Hg-N,3,HgBrN
3.2015,Br-Hg-O,3,HgBrO3
0.0,Br-Hg-O,3,HgBrO4
0.0,C-Hg,2,HgC
3.6841,C-Hg-N-O,4,HgC2(NO)2
2.1848,C-Hg-N-S,4,HgC2(SN)2
2.2164,C-Hg-N-S,4,HgC2(SN)2
2.2102,C-Hg-N-Se,4,HgC2(SeN)2
0.0,Br-C-Hg-N,4,HgCBr3N
1.9453,C-Hg-N,3,HgCN2
3.3212,C-Hg-N-O,4,HgCN2O3
0.0,C-Hg-N-O,4,HgCNO3
0.0,C-Cl-Hg-N-S,5,HgCS(NCl)2
3.3625,C-F-Hg-O-S,5,HgCS(OF)3
2.4401,C-Cl-Hg-N-S,5,HgCSNCl
2.7243000000000004,Cl-Hg,2,HgCl
2.8686,Cl-Hg,2,HgCl2
0.0134999999999998,Cl-Hg-O,3,HgClO4
1.7704,F-Hg,2,HgF
0.7648999999999999,F-Hg,2,HgF2
0.9687,F-Hg,2,HgF2
0.3962999999999999,F-Hg,2,HgF2
0.0,F-Hg,2,HgF3
0.0,Ge-Hg,2,HgGe3
0.0,Ge-Hg-O,3,HgGeO3
3.2019,C-H-Hg-O-S,5,HgH10C2(SO4)2
3.481,Cl-H-Hg-O,4,HgH12(ClO7)2
2.3849,Cl-H-Hg-N,4,HgH2NCl
1.9665,H-Hg-O-S,4,HgH2SO5
1.4897,H-Hg-O-Se,4,HgH2SeO5
2.8131,C-H-Hg-O-S,5,HgH3CSO3
2.2824,C-Cl-H-Hg-N,5,HgH4C2(N2Cl)2
3.7513,C-H-Hg-N-O,5,HgH6C4(N2O)2
1.4435,H-Hg-I-N-O,5,HgH6I3NO
2.5334000000000003,Br-C-H-Hg-N,5,HgH8C2Br3N
2.3817,Cl-H-Hg-O,4,HgHClO4
1.5664,H-Hg-N-O,4,HgHNO4
1.4590999999999998,F-H-Hg-O,4,HgHOF
1.6426000000000005,Hg-I,2,HgI
2.3302,Hg-I,2,HgI2
1.3324,Hg-I,2,HgI2
0.0,Hg-I,2,HgI3
0.8361000000000001,Hg-I-N-O,4,HgI3NO
2.362,Br-Hg-I,3,HgIBr
0.0,Hg-Ir-O,3,HgIrO3
0.0,Hg-Mo-S-Se,4,HgMo6(SeS)4
2.2557,Hg-Mo-O,3,HgMoO4
0.0,Hg-N,2,HgN
0.9168999999999996,Hg-N,2,HgN2
2.1595,Hg-N,2,HgN3
2.7481,Hg-N,2,HgN6
2.6897,Hg-N,2,HgN6
0.0,Cl-Hg-N,3,HgNCl
0.0906,Cl-Hg-N,3,HgNCl
0.0,Cl-Hg-N,3,HgNCl3
2.0771,Hg-N-O,3,HgNO2
0.0014999999999998,Hg-N-O,3,HgNO4
0.7127999999999999,Hg-N-O,3,HgNO4
0.0,Hg-N-O,3,HgNO4
0.1762999999999999,Hg-N-O,3,HgNO4
0.0,Hg-N-O,3,HgNO5
1.2712,Hg-O,2,HgO
1.1867,Hg-O,2,HgO
0.0,Hg-O,2,HgO
1.3043,Hg-O,2,HgO
1.3101,Hg-O,2,HgO
0.0533999999999998,Hg-O,2,HgO2
0.0753000000000001,Hg-O,2,HgO2
0.3104,Hg-O,2,HgO2
0.1567,Hg-O,2,HgO2
0.0,F-Hg-O,3,HgOF
0.0,Hg-Os,2,HgOs
0.0,Hg-O-Os,3,HgOsO3
0.0,Hg-Os-Pb,3,HgOsPb2
0.5524999999999998,Hg-O-P-Pd,4,HgP2(PdO4)2
1.3365000000000002,Hg-O-P-Pd,4,HgP2PdO7
0.0,Hg-P-Se,3,HgP2Se
0.0,Hg-O-P,3,HgPO4
0.0,Hg-P-Pd,3,HgPPd5
0.0,Hg-P-Pt,3,HgPPt5
0.0,Hg-P-Rh,3,HgPRh
1.7549,Hg-P-S,3,HgPS3
0.0,Hg-Pb,2,HgPb2
2.2693,Cl-Hg-O-Pb,4,HgPb2(ClO)2
0.0,Hg-Pb,2,HgPb3
0.0,Hg-Pb,2,HgPb4
1.3192,F-Hg-Pb,3,HgPbF6
0.0,Hg-Pd,2,HgPd
0.0,Au-Hg-Pd,3,HgPd2Au
0.0,Hg-Pd,2,HgPd3
0.0,Hg-Pd-Se,3,HgPd5Se
0.0,F-Hg-Pd,3,HgPdF4
0.0,Hg-Pt,2,HgPt
0.0,Hg-Pt-Se,3,HgPt2Se3
0.0,Hg-Pt,2,HgPt3
0.0,Hg-Pt,2,HgPt4
0.0,Hg-O-Pt,3,HgPtO2
0.0,F-Hg-Rh,3,HgRhF6
0.0,Hg-O-Rh,3,HgRhO3
0.0,Hg-O-Ru,3,HgRuO3
0.0,Hg-S,2,HgS
1.7204000000000002,Hg-S,2,HgS
1.6863,Hg-S,2,HgS
1.5473,Br-Hg-S,3,HgSBr
1.3525,Hg-O-S,3,HgSO4
0.0,Hg-O-S,3,HgSO5
1.9133,F-Hg-O-Sb,4,HgSbOF8
1.0432,Hg-Se,2,HgSe
0.0,Hg-Se,2,HgSe
1.1562,Hg-N-O-Se,4,HgSeNO3
1.9987,Hg-O-Se,3,HgSeO3
2.6045,Hg-O-Se,3,HgSeO3
2.5571,Hg-O-Se,3,HgSeO3
0.8439999999999999,Hg-O-Se,3,HgSeO4
0.2789000000000001,Hg-Te,2,HgTe
0.0,Hg-Te,2,HgTe
0.4801999999999999,Hg-Te,2,HgTe
2.6942,H-Hg-O-Te,4,HgTe(HO)7
2.2362,Hg-O-Te,3,HgTeO3
0.0494000000000001,F-Hg-O-Te,4,HgTeO3F
0.9793999999999996,Hg-O-W,3,HgWO4
2.2876,Hg-O-W,3,HgWO4
0.0,Ho,1,Ho
0.0,Al-Cr-Ho,3,Ho(Al2Cr)4
0.0,Al-Cu-Ho,3,Ho(Al2Cu)4
0.0,Al-Fe-Ho,3,Ho(Al2Fe)4
0.0,Al-Fe-Ho,3,Ho(Al5Fe)2
0.0,Al-Ho-Ru,3,Ho(Al5Ru)2
0.0,Al-C-Ho,3,Ho(AlC)3
0.0,Al-Cu-Ho,3,Ho(AlCu)6
0.0,Al-Fe-Ho,3,Ho(AlFe)6
0.0,Al-Ge-Ho,3,Ho(AlGe)2
0.0,Al-Ho-Si,3,Ho(AlSi)2
0.0,B-C-Ho,3,Ho(BC)2
0.1291999999999999,B-Ho-O,3,Ho(BO2)6
0.0,B-Ho-Rh,3,Ho(BRh)4
0.0,B-Ho-Ru,3,Ho(BRu)4
0.0,Bi-Ho-O,3,Ho(BiO3)2
0.0,Cl-Ho-O,3,Ho(ClO2)3
5.0172,Cl-Ho-O,3,Ho(ClO4)3
5.7915,Cl-Ho-O,3,Ho(ClO4)3
0.0,B-Co-Ho,3,Ho(Co2B)6
0.0,B-Co-Ho,3,Ho(CoB)2
0.0,B-Co-Ho,3,Ho(CoB)4
0.0,Co-Ge-Ho,3,Ho(CoGe)2
0.0,Co-Ge-Ho,3,Ho(CoGe)6
0.0,Co-Ho-Si,3,Ho(CoSi)2
0.0,Cr-Fe-Ho,3,Ho(CrFe5)2
0.0,Cr-Ge-Ho,3,Ho(CrGe)6
0.0,Cr-Ho-Si,3,Ho(CrSi)2
0.0,Cu-Ge-Ho,3,Ho(CuGe)2
0.0,Cu-Ho-O,3,Ho(CuO2)2
0.0,Cu-Ho-S,3,Ho(CuS)2
1.4907000000000004,Cu-Ho-S,3,Ho(CuS)3
0.0,Cu-Ho-S,3,Ho(CuS)3
0.0,Cu-Ho-Si,3,Ho(CuSi)2
0.7792000000000003,Cu-Ho-Te,3,Ho(CuTe)3
0.0,Fe-Ge-Ho,3,Ho(Fe2Ge)2
0.0,Fe-Ho-Mo,3,Ho(Fe5Mo)2
0.0,Fe-Ho-Re,3,Ho(Fe5Re)2
0.0,Fe-Ho-Si,3,Ho(Fe5Si)2
0.0,B-Fe-Ho,3,Ho(FeB)2
0.0,Fe-Ge-Ho,3,Ho(FeGe)2
0.0,Fe-Ge-Ho,3,Ho(FeGe)6
0.0,Fe-Ho-Si,3,Ho(FeSi)2
0.0,Co-Ga-Ho,3,Ho(GaCo)6
0.0,Fe-Ga-Ho,3,Ho(GaFe)6
0.0,Ge-Ho-Rh,3,Ho(Ge2Rh3)2
0.0,Ge-Ho-Pd,3,Ho(GePd)2
0.0,Ge-Ho-Rh,3,Ho(GeRh)2
0.0,Ge-Ho-Ru,3,Ho(GeRu)2
3.6657,H-Ho-O,3,Ho(HO)3
0.0,Ho-I-O,3,Ho(IO3)3
0.0,Al-Ho-Mn,3,Ho(MnAl)6
0.0,Al-Ho-Mn,3,Ho(MnAl2)4
0.0,Ga-Ho-Mn,3,Ho(MnGa)6
0.0,Ge-Ho-Mn,3,Ho(MnGe)2
0.0,Ge-Ho-Mn,3,Ho(MnGe)6
0.0,Ho-Mn-Si,3,Ho(MnSi)2
0.0,Ho-Mn-Sn,3,Ho(MnSn)6
0.0,Ho-Mo-S,3,Ho(Mo3S4)2
0.0,Ho-Mo-Se,3,Ho(Mo3Se4)2
0.7620999999999998,Ho-Mo-O,3,Ho(MoO3)2
0.0,As-Ho-Ni,3,Ho(Ni2As)2
0.0,B-Ho-Ni,3,Ho(Ni2B)6
0.0,Ho-Ni-P,3,Ho(Ni2P)2
0.0,B-Ho-Ni,3,Ho(NiB)2
0.0,Ge-Ho-Ni,3,Ho(NiGe)2
0.0,Ho-Ni-P,3,Ho(NiP)2
0.0,Ho-Ni-Sb,3,Ho(NiSb)2
0.0,Ho-P-Pd,3,Ho(PPd)2
0.0,Ho-P-Ru,3,Ho(PRu)2
0.0,Ho-O-Sb,3,Ho(SbO3)2
0.0,Au-Ho-Si,3,Ho(SiAu)2
0.0,Ho-Ir-Si,3,Ho(SiIr)2
0.0,Ho-Ni-Si,3,Ho(SiNi)2
0.0,Ho-Ni-Si,3,Ho(SiNi5)2
0.0,Ho-Os-Si,3,Ho(SiOs)2
0.0,Ho-Pd-Si,3,Ho(SiPd)2
0.0,Ho-Pt-Si,3,Ho(SiPt)2
0.0,Ho-Rh-Si,3,Ho(SiRh)2
0.0,Ho-Ru-Si,3,Ho(SiRu)2
0.0,Ga-Ho-Ti,3,Ho(TiGa2)2
0.0,Fe-Ho-V,3,Ho(VFe5)2
0.0,Ho-O-W,3,Ho(WO3)2
0.4008000000000002,Ho-P-Zn,3,Ho(ZnP)3
0.0,C-Ho-Mn,3,Ho12(MnC3)5
0.0,Bi-Co-Ho,3,Ho12Co5Bi
0.0,Fe-Ho-In,3,Ho12In3Fe2
0.0,Ho-Ni-Pb,3,Ho12Ni6Pb
0.0,Al-Ho-Ir,3,Ho2(Al3Ir)3
0.0,Al-Ho-Pd,3,Ho2(Al3Pd)3
0.0,B-Ho-Rh,3,Ho2(B2Rh3)3
0.0,Co-Ho-Ni,3,Ho2(CoNi)5
0.0,Fe-Ho-Si,3,Ho2(Fe3Si)3
0.0,Co-Ga-Ho,3,Ho2(Ga3Co)3
0.0,Ga-Ho-Ir,3,Ho2(Ga3Ir)3
0.0,Ga-Ho-Rh,3,Ho2(Ga3Rh)3
0.0,Ga-Ho-Ru,3,Ho2(Ga3Ru)3
0.0,Ge-Ho-Pt,3,Ho2(GePt3)3
0.0,B-Ho-Ni,3,Ho2(NiB2)3
3.9351,Ho-O-Se,3,Ho2(SeO3)3
3.0062,Ho-O-Se,3,Ho2(SeO4)3
0.0,Ho-Pt-Si,3,Ho2(SiPt)3
3.7126,Ho-O-W,3,Ho2(WO4)3
0.0,Ag-Au-Ho,3,Ho2AgAu
0.0,Ag-Hg-Ho,3,Ho2AgHg
0.0,Ag-Ho-Ir,3,Ho2AgIr
0.0,Ag-Ho-Os,3,Ho2AgOs
0.0,Ag-Ho-Ru,3,Ho2AgRu
0.0,Al-Ho,2,Ho2Al
0.0,Al-Co-Ho,3,Ho2Al3Co14
0.0,Al-Fe-Ho,3,Ho2Al3Fe
0.0,Al-Ge-Ho,3,Ho2Al3Ge4
0.0,Al-Ho-Si,3,Ho2Al3Si2
0.0,Al-Cd-Ho,3,Ho2AlCd
0.0,Al-Fe-Ho,3,Ho2AlFe3
0.0,Al-Ho-Ni,3,Ho2AlNi2
0.0,Al-Ho-Os,3,Ho2AlOs
0.0,Al-Ho-Ru,3,Ho2AlRu
0.0,Al-Ho-Si,3,Ho2AlSi2
0.0,Al-Ho-Zn,3,Ho2AlZn
0.0,As-Ho-Rh,3,Ho2As7Rh12
0.0,Au-Ho,2,Ho2Au
0.0,B-C-Ho,3,Ho2B4C
5.659700000000001,B-Ho-O,3,Ho2B4O9
0.0,B-Ho-Os,3,Ho2B6Os
0.0,B-Ho-Rh,3,Ho2B6Rh
0.0,B-Ho-Ru,3,Ho2B6Ru
4.4313,Be-Ge-Ho-O,4,Ho2Be2GeO7
5.0859000000000005,Be-Ho-O-Si,4,Ho2Be2SiO7
0.0,Bi-Ho-O,3,Ho2Bi2O7
0.0,Bi-Ho-O,3,Ho2BiO2
0.0,Br-Ho-O,3,Ho2Br2O
0.0,C-Ho,2,Ho2C
3.9966,C-Ho-N-O,4,Ho2C(NO)2
0.0,C-Ho,2,Ho2C3
1.1355000000000004,C-F-Ho,3,Ho2CF2
0.0,Cd-Cu-Ho,3,Ho2CdCu2
0.0,Cd-Hg-Ho,3,Ho2CdHg
0.0,Cd-Ho-In,3,Ho2CdIn
0.0,Cd-Ho-Os,3,Ho2CdOs
0.0,Cd-Ho-Pd,3,Ho2CdPd2
2.1641999999999992,Cd-Ho-S,3,Ho2CdS4
0.6562000000000001,Cd-Ho-S,3,Ho2CdS4
1.1172000000000002,Cd-Ho-S,3,Ho2CdS4
0.6036999999999999,Cd-Ho-Se,3,Ho2CdSe4
0.0,Cl-Ho-O,3,Ho2Cl2O
0.0,Co-Ho-Ni,3,Ho2Co12Ni5
0.0,Co-Ho-P,3,Ho2Co12P7
0.0,Co-Ho,2,Ho2Co17
0.0,Co-Ho-I,3,Ho2Co2I
0.0,Co-Ge-Ho,3,Ho2Co3Ge5
0.0,Co-Ho-Si,3,Ho2Co3Si5
0.0,Co-Ho,2,Ho2Co7
0.0,B-Co-Ho,3,Ho2Co7B3
0.0,Co-Ge-Ho,3,Ho2CoGe2
0.0,Co-Ge-Ho,3,Ho2CoGe6
0.0,Co-Ho-Os,3,Ho2CoOs
1.7584,Co-Ho-O-Pt,4,Ho2CoPtO6
0.0,Co-Ho-Ru,3,Ho2CoRu
0.0,Co-Ho-Si,3,Ho2CoSi2
3.0518000000000005,Co-Ho-O-S-Te,5,Ho2CoTe2(SO7)2
0.0,C-Cr-Ho,3,Ho2Cr2C3
0.0,Co-Cr-Ho,3,Ho2Cr2Co15
1.6887999999999996,Cr-Ho-O-Sb,4,Ho2CrSbO7
0.6646000000000001,B-Cu-Ho-O,4,Ho2Cu(B2O5)2
0.7174,Cu-Ge-Ho-O,4,Ho2Cu(GeO3)4
0.6806000000000001,Cu-Ge-Ho-O,4,Ho2Cu(GeO4)2
0.7784,Cu-Ho-O-Si,4,Ho2Cu(SiO3)4
0.1562999999999998,Cu-Ho-O,3,Ho2Cu2O5
0.0,Cu-Ge-Ho,3,Ho2CuGe6
0.0,Cu-Ho-Ir,3,Ho2CuIr
0.0,Cu-Ho-O,3,Ho2CuO4
0.0,Cu-Ho-Os,3,Ho2CuOs
0.0,Cu-Ho-Pd,3,Ho2CuPd
0.0,Cu-Ho-Pt,3,Ho2CuPt
0.0,Cu-Ho-Rh,3,Ho2CuRh
0.0,Cu-Ho-Ru,3,Ho2CuRu
0.0,Cu-Ho-Tc,3,Ho2CuTc
0.8660000000000001,Cu-Ho-O-S-Te,5,Ho2CuTe2(SO7)2
0.0,Fe-Ho-P,3,Ho2Fe12P7
0.0,C-Fe-Ho,3,Ho2Fe17C
0.0,C-Fe-Ho,3,Ho2Fe17C2
0.0,C-Fe-Ho,3,Ho2Fe17C3
0.0,C-Fe-Ho-Si,4,Ho2Fe2Si2C
0.0,Fe-Ho-Si,3,Ho2Fe4Si9
0.0,Co-Fe-Ho,3,Ho2Fe5Co12
0.0,As-Fe-Ho-O,4,Ho2FeAs2O
0.0,C-Fe-Ho,3,Ho2FeC4
0.6350000000000002,Fe-Ho-Mo-O,4,Ho2FeMoO7
1.3926999999999996,Fe-Ho-O-Sb,4,Ho2FeSbO7
0.0,Fe-Ho-Si,3,Ho2FeSi2
0.0,Fe-Ho-Si,3,Ho2FeSi4
0.0,C-Fe-Ga-Ho,4,Ho2Ga3(Fe7C)2
0.0,Cu-Ga-Ho,3,Ho2Ga3Cu
0.0,Fe-Ga-Ho,3,Ho2Ga3Fe
0.0,Ga-Ho-Ni,3,Ho2Ga3Ni
0.0,C-Fe-Ga-Ho,4,Ho2Ga4Fe13C2
0.0,Co-Ga-Ho,3,Ho2Ga8Co
0.0,Fe-Ga-Ho,3,Ho2Ga8Fe
0.0,Ag-Ga-Ho,3,Ho2GaAg
0.0,Co-Ga-Ho,3,Ho2GaCo2
0.0,Ga-Ho-Ni,3,Ho2GaNi2
0.0,Ga-Ho-Os,3,Ho2GaOs
0.0,Ga-Ho-Ru,3,Ho2GaRu
0.0,Ge-Ho-O,3,Ho2Ge2O5
3.0028999999999995,Ge-Ho-O,3,Ho2Ge2O7
3.9701,Ge-Ho-O,3,Ho2Ge2O7
0.0,Ge-Ho-Os,3,Ho2Ge2Os
0.0,Ge-Ho-Rh,3,Ho2Ge2Rh
0.0,Ge-Ho-Ru,3,Ho2Ge2Ru
0.0,Ge-Ho,2,Ho2Ge3
0.0,Ge-Ho-Rh,3,Ho2Ge5Rh3
0.0,Ge-Ho-Ru,3,Ho2Ge5Ru3
0.0,Ge-Ho-Pd,3,Ho2Ge6Pd
0.0,Ge-Ho-Pt,3,Ho2Ge6Pt
0.0,Hf-Ho-O,3,Ho2Hf2O5
3.1157000000000004,Hf-Ho-O,3,Ho2Hf2O7
2.0969,Hg-Ho-O,3,Ho2HgO4
0.0,Hg-Ho-Os,3,Ho2HgOs
0.0,Ho-In,2,Ho2In
0.0,Cu-Ho-In,3,Ho2In3Cu
0.0,Co-Ho-In,3,Ho2In8Co
0.0,Ag-Ho-In,3,Ho2InAg
0.0,Au-Ho-In,3,Ho2InAu2
0.0,Ge-Ho-In,3,Ho2InGe2
0.0,Hg-Ho-In,3,Ho2InHg
0.0,Ho-In-Ni,3,Ho2InNi2
0.0,Ho-In-Os,3,Ho2InOs
0.0,Ho-In-Pd,3,Ho2InPd2
0.0,Au-Ho-Ir,3,Ho2IrAu
0.0,Ho-Ir-Pd,3,Ho2IrPd
0.0,Ho-Ir-Rh,3,Ho2IrRh
0.0,Ho-Ir-Ru,3,Ho2IrRu
0.0,Ho-Mg,2,Ho2Mg
0.8040999999999996,Bi-Ho-Mg-O,4,Ho2Mg(BiO3)4
0.1069,Bi-Ho-Mg-O,4,Ho2Mg(BiO3)4
1.7027,Ho-Mg-O-Sb,4,Ho2Mg(SbO3)4
2.3944,Ho-Mg-O,3,Ho2Mg2O5
2.3227,Ag-Ho-Mg-O-W,5,Ho2MgAg2(WO4)4
2.1306,Ag-Ho-Mg-O-W,5,Ho2MgAg2(WO4)4
2.2055,Ag-Ho-Mg-O-W,5,Ho2MgAg2(WO4)4
1.9614000000000005,Ag-Ho-Mg-O-W,5,Ho2MgAg2(WO4)4
1.6027000000000005,Ag-Ho-Mg-O-W,5,Ho2MgAg2(WO4)4
2.2612,Ag-Ho-Mg-O-W,5,Ho2MgAg2(WO4)4
0.0,Al-Ho-Mg,3,Ho2MgAl
0.0,Cd-Ho-Mg,3,Ho2MgCd
0.9856,Cr-Ho-Mg-O,4,Ho2MgCr2O8
1.5435,Cr-Ho-Mg-O,4,Ho2MgCr2O8
0.0,Cu-Ge-Ho-Mg-O,5,Ho2MgCu(GeO3)4
0.1520999999999999,Cu-Ho-Mg-O-Si,5,Ho2MgCu(SiO3)4
0.0,Cu-Ho-Mg-O-Si,5,Ho2MgCu(SiO3)4
0.0,Cu-Ho-Mg,3,Ho2MgCu2
0.0,Cu-Ho-Mg-O,4,Ho2MgCuO4
0.0,Ga-Ho-Mg,3,Ho2MgGa
0.0,Ge-Ho-Mg,3,Ho2MgGe2
0.0,Ho-In-Mg,3,Ho2MgIn
1.793,Cl-Ho-Mg-Mo-O,5,Ho2MgMo2(ClO4)2
1.7033,Cl-Ho-Mg-Mo-O,5,Ho2MgMo2(ClO4)2
1.7487,Cl-Ho-Mg-Mo-O,5,Ho2MgMo2(ClO4)2
0.0,Ho-Mg-Ni,3,Ho2MgNi2
0.0,Ho-Mg-Os,3,Ho2MgOs
0.0,Ho-Mg-Pd,3,Ho2MgPd2
0.0,Ho-Mg-Ru,3,Ho2MgRu
2.3781,Ho-Mg-S,3,Ho2MgS4
1.9659,Ho-Mg-S,3,Ho2MgS4
1.3304,Ho-Mg-Se,3,Ho2MgSe4
1.9584,Ho-Mg-Se,3,Ho2MgSe4
0.0,Ho-Mg-Si,3,Ho2MgSi2
0.0,Ho-Mg-Tc,3,Ho2MgTc
3.2261999999999995,Ho-Mg-O-Ti,4,Ho2MgTiO6
0.0,Ho-Mg-Tl,3,Ho2MgTl
1.3950999999999998,Ho-Mg-O-V,4,Ho2MgV2O7
1.4803000000000002,Ho-Mg-O-V,4,Ho2MgV2O7
1.5759000000000003,Ho-Mg-O-V,4,Ho2MgV2O8
0.7401000000000004,Ho-Mg-O-V,4,Ho2MgV4O12
2.435,Cl-Ho-Mg-O-W,5,Ho2MgW2(ClO4)2
0.0,Ga-Ge-Ho-Mn,4,Ho2Mn12GaGe11
0.0,Ho-Mn-P,3,Ho2Mn12P7
0.9335,Ho-Mn-O,3,Ho2Mn2O7
0.0,Co-Ho-Mn,3,Ho2Mn3Co14
1.0202999999999998,Ho-Mn-O-Sb,4,Ho2Mn3Sb3O14
0.0,Ge-Ho-Mn,3,Ho2MnGe4
1.8696,Ho-Mn-Ni-O,4,Ho2MnNiO6
0.0,Ho-Mn-Os,3,Ho2MnOs
0.0,Ho-Mn-O-Ru,4,Ho2MnRuO7
0.0,C-Ho-Mo,3,Ho2Mo2C3
2.1491,Ho-Mo-O,3,Ho2MoO6
3.904,B-Ho-Ni-O,4,Ho2Ni(B2O5)2
0.0,As-Ho-Ni,3,Ho2Ni12As7
0.0,Ho-Ni-P,3,Ho2Ni12P7
0.0,Ho-Ni,2,Ho2Ni17
0.0,Ho-Ni-Pb,3,Ho2Ni2Pb
0.0,Ho-Ni-Sn,3,Ho2Ni2Sn
0.0,Ho-Ni,2,Ho2Ni7
0.0,As-Ho-Ni,3,Ho2NiAs2
0.0,B-Ho-Ni,3,Ho2NiB10
0.0,Ge-Ho-Ni,3,Ho2NiGe6
0.0,Ho-Ir-Ni,3,Ho2NiIr
0.0,Ho-Ni-Ru,3,Ho2NiRu
0.0,Ho-Ni-O-Ru,4,Ho2NiRuO6
0.0,Ho-Ni-Sb,3,Ho2NiSb4
1.517,Ho-O,2,Ho2O3
4.2423,Ho-O,2,Ho2O3