eg,chemsys,nelements,formula
1.0037999999999998,H-O-W,3,H2W2O7
1.282,H-O-W,3,H2W2O7
1.631,H-O-W,3,H2W2O7
1.7049,H-O-W,3,H2W2O7
2.1073,H-O-W,3,H2W2O7
2.3043,H-O-W,3,H2W2O7
1.4761,H-O-W,3,H2WO4
2.3040000000000003,H-O-W,3,H2WO5
1.6959000000000002,H-O-W,3,H2WO5
5.2561,H-O-S,3,H30S2O21
3.8194,Au-C-Cl-H-N,5,H3AuC2NCl
4.5929,Br-H-O,3,H3BrO
3.5314,C-F-H-O-Se,5,H3C6SeO3F5
4.5531,Br-C-H,3,H3CBr
5.572100000000001,C-Cl-H,3,H3CCl
3.3729,C-H-I,3,H3CI
2.6086,C-H-N-O,4,H3CN4O
3.0427,C-H-N-O,4,H3CNO2
5.5308,C-F-H-O,4,H3CO2F
3.5773,C-H-O,3,H3CO3
3.4314,C-H-O,3,H3CO3
3.3732,C-H-O,3,H3CO3
2.3655,C-Cl-H-O-S,5,H3CSClO
4.804600000000001,C-F-H-N-O-S,6,H3CSNOF2
5.5013,Cl-H-O,3,H3ClO
5.3864,Cl-H-O,3,H3ClO
5.4926,Cl-H-O,3,H3ClO5
5.0433,Cl-H-O,3,H3ClO5
4.888,Cl-H-O,3,H3ClO5
4.7936000000000005,Cl-H-O,3,H3ClO5
5.4045,Cl-H-O,3,H3ClO5
4.753299999999999,Cl-H-O,3,H3ClO5
8.0745,F-H,2,H3F2
7.903799999999999,F-H,2,H3F2
0.8348999999999998,H-I-N,3,H3I3N2
4.3412,H-N,2,H3N
4.4529,H-N,2,H3N
3.7337,H-N,2,H3N
5.2202,Cl-H-N,3,H3NCl
3.8407,H-N-O,3,H3NO
0.2865999999999999,H-N-O,3,H3NO
2.4233,H-N-O,3,H3NO
3.7619,H-N-O,3,H3NO4
3.3335,H-N-O,3,H3NO4
3.7239,H-N-O,3,H3NO4
3.9184,H-N-O,3,H3NO4
3.8302,H-O,2,H3O2
6.7458,F-H-O,3,H3OF
0.0,H-Pb,2,H3Pb
1.8543,C-F-H-I-N-Pb,6,H3PbCI3NF3
0.0,H-Pd,2,H3Pd4
0.0,H-Pt,2,H3Pt
0.0,H-S,2,H3S
4.3472,H-S,2,H3S
3.8443,H-S,2,H3S
5.090400000000001,H-N-O-S,4,H3SNO4
5.4991,F-H-O-S,4,H3SO4F
0.0,H-W,2,H3W
4.3113,Br-H-N,3,H4BrN
4.0357,Br-H-N,3,H4BrN
3.1119,Br-H-N-O,4,H4BrNO4
7.6375,C-H,2,H4C
2.9871000000000003,C-H-N-O,4,H4C(N2O)2
1.7294,C-H-N-O,4,H4C(N2O)2
2.3823,C-H-N-O,4,H4C(N2O)2
2.9450000000000003,C-H-N-O,4,H4C(N2O)4
2.8328,C-H-N-O,4,H4C2NO2
4.6709,C-H-O,3,H4C2O
3.3520000000000003,C-H-N-S,4,H4C2SN4
3.3456,C-H-O,3,H4C5O2
2.8404,C-H-O,3,H4C6O
5.0712,C-H-N-O,4,H4CN2O
4.7048,C-H-N-O,4,H4CN2O
4.8066,C-H-N-O,4,H4CN2O
2.0661,C-H-N-O,4,H4CN4O
2.0407,C-H-N-O,4,H4CN4O
3.3852,C-Cl-H-N,4,H4CN5Cl
3.0256,C-H-N-O-S,5,H4CS(NO)2
2.9683,C-H-N-O-S,5,H4CS(NO)2
3.6175,C-H-N-S,4,H4CSN2
4.332,C-H-N-S,4,H4CSN2
2.7968,C-H-N-S,4,H4CSN2
3.3985000000000003,C-H-N-S,4,H4CSN2
0.0,H-I-N-O,4,H4I3NO9
2.1899,H-I-N-O,4,H4I3NO9
3.7619,H-I-N,3,H4IN
3.6458,H-I-N,3,H4IN
2.4418,H-I-N-O,4,H4INO4
0.0,H-N,2,H4N
1.5921999999999998,H-N-O,3,H4N2O3
1.6042,H-N-O,3,H4N2O3
1.1686,H-N-O,3,H4N2O3
4.207,H-N-O,3,H4N2O3
3.11,H-N-O,3,H4N2O3
0.0,H-N-O,3,H4N2O3
1.374,H-N-O,3,H4N2O3
0.7247,H-N-O,3,H4N2O3
4.999,H-N-O,3,H4N2O3
4.819599999999999,H-N-O,3,H4N2O3
2.7379,H-N-O,3,H4N2O3
3.0705,H-N-O,3,H4N2O3
3.1285000000000003,H-N-O,3,H4N2O3
3.3864,H-N-O,3,H4N2O3
4.9364,Cl-H-N,3,H4NCl
5.0493,Cl-H-N-O,4,H4NClO
2.8159,Cl-H-N-O,4,H4NClO2
5.2585,Cl-H-N-O,4,H4NClO4
5.3564,Cl-H-N-O,4,H4NClO4
5.959200000000001,F-H-N,3,H4NF
6.1796,F-H-N,3,H4NF
5.4443,F-H-N,3,H4NF2
2.1194,F-H-N,3,H4NF3
7.0619,F-H-O,3,H4OF2
2.7535,H-I-N-Pb,4,H4PbI3N
1.5880999999999998,H-N-O-Pd,4,H4Pd(NO4)2
0.0,H-Pd,2,H4Pd3
0.0,H-Pt,2,H4Pt
5.3453,H-N-O-S,4,H4S(NO)2
2.2105,H-N-O-S,4,H4S4N6O
3.5707,H-N-O-S,4,H4SNO4
5.7381,H-O-S,3,H4SO5
5.2345,H-O-S,3,H4SO5
5.366499999999999,H-O-S,3,H4SO5
5.2564,H-O-S,3,H4SO5
5.6541,H-O-S,3,H4SO5
5.2943,H-O-S,3,H4SO5
5.2574,H-O-S,3,H4SO5
0.0311999999999996,H-W,2,H4W
0.0,Cl-H-N-W,4,H4WNCl6
3.1149,H-N-O,3,H5(NO)3
4.5682,Br-H-N-O,4,H5BrNO
4.3548,Br-H-N-O,4,H5BrNO
4.3685,Br-H-O,3,H5BrO2
4.1647,Br-H-O,3,H5BrO2
4.4193,Br-H-O,3,H5BrO2
0.0,Br-H-O,3,H5BrO2
3.162,C-H-N-O,4,H5C2(NO)3
5.4153,C-Cl-H-O,4,H5C2ClO
3.0878,C-H-N-O,4,H5C2NO4
4.3095,C-H-N,3,H5CN3
5.0248,C-H-N-O,4,H5CNO2
2.4905,C-Cl-H-N-O-S,6,H5CSN2ClO4
5.2194,Cl-H-O,3,H5ClO2
5.4471,Cl-H-O,3,H5ClO6
2.2095,H-I-O,3,H5IO6
1.266,H-I-O,3,H5IO6
2.2994,H-I-O,3,H5IO6
2.3769,H-I-O,3,H5IO6
2.1088,H-I-O,3,H5IO6
1.8659,H-I-O,3,H5IO6
1.6184,H-I-O,3,H5IO6
2.0918,H-I-O,3,H5IO6
0.965,H-I-O,3,H5IO6
0.815,Cl-H-N,3,H5N2Cl
0.0,Cl-H-N,3,H5N2Cl
5.4935,Cl-H-N-O,4,H5N2ClO4
5.4604,F-H-N,3,H5N2F
6.9008,F-H-N,3,H5NF2
4.8125,H-N-O,3,H5NO
4.5812,H-N-O,3,H5NO
3.5725,H-N-O,3,H5NO2
1.5646,H-N-O,3,H5NO2
0.0,H-N-O,3,H5NO2
1.7578,Br-C-H-N-Pb,5,H5PbCBr3N2
1.4326,C-H-I-N-Pb,5,H5PbCI3N2
2.4370000000000003,C-Cl-H-N-Pb,5,H5PbCN2Cl3
4.410900000000001,H-N-O-Se,4,H5SeNO3
3.4905,H-N-O-Se,4,H5SeNO4
3.4891,H-N-O-Se,4,H5SeNO4
0.0,H-W,2,H5W
4.9276,C-H-N-O,4,H6C(NO)2
4.5286,C-H-N-O,4,H6C2N4O
2.6184,C-H-N-O,4,H6C2NO
6.1056,C-H-O-S,4,H6C2SO4
6.1425,C-H-O-S,4,H6C2SO4
3.9629,C-H-O-Se,4,H6C2SeO
4.0743,C-H-I-N,4,H6CIN
3.9223,C-H-I-N,4,H6CIN
3.3317,C-H-N-O,4,H6CN2O3
4.4935,C-H-N-O,4,H6CN2O3
5.2019,C-Cl-H-N-O,5,H6CN3ClO
4.9787,C-H-N-O,4,H6CN4O
2.3977000000000004,C-H-N-O,4,H6CN4O3
2.4617,C-H-N-O,4,H6CN6O5
4.9006,C-Cl-H-N,4,H6CNCl
5.314,C-Cl-H-N-O,5,H6CNClO
5.7453,C-F-H-N,4,H6CNF
6.0427,C-F-H-N,4,H6CNF
3.6624,C-H-N-O-S,5,H6CSN2O
3.4076,C-H-N-S,4,H6CSN4
3.2365,H-I-N-O,4,H6I3NO9
3.8792,H-N-O,3,H6N2O
1.4636,H-N-O,3,H6N4O9
2.6783,H-N-O,3,H6N4O9
1.6163,H-N-O,3,H6N4O9
1.6800000000000002,H-N-O,3,H6N4O9
2.7873,H-N-O,3,H6N4O9
0.3096,H-N-O,3,H6N4O9
2.0445,H-N-O,3,H6N4O9
1.1695,H-N-O,3,H6N4O9
2.8929,H-N-O,3,H6N4O9
3.5339,F-H-N-O,4,H6NO2F
7.3988,F-H-O,3,H6OF4
2.0713000000000004,Br-C-H-N-Pb,5,H6PbCBr3N
1.6778,C-H-I-N-Pb,5,H6PbCI3N
2.7966,C-Cl-H-N-Pb,5,H6PbCNCl3
2.3012,H-N-O-Pd,4,H6Pd(NO)4
1.5616,C-H-O-Pd-S,5,H6PdC2(SO3)2
2.5603,H-N-O-Pt,4,H6Pt(NO)4
5.4258,H-N-O-S,4,H6S(NO2)2
5.2248,H-N-O-S,4,H6S(NO2)2
0.0,H-N-O-S,4,H6S2N2O3
0.0,H-W,2,H6W
3.8402,Br-H-O,3,H7BrO3
3.7349,Br-H-O,3,H7BrO3
2.1478,C-H-N-O,4,H7C2N7O6
3.2492,Br-C-H-N-S,5,H7C2SBrN4
3.1361,Br-C-H-N-S,5,H7C2SBrN4
4.741899999999999,C-H-N-O,4,H7C3N3O5
4.1696,Cl-H-O,3,H7ClO3
5.2273,Cl-H-O,3,H7ClO3
4.2299,Cl-H-O,3,H7ClO3
4.8883,F-H-N,3,H7N2F
7.2658,F-H-N,3,H7NF4
0.0,H-O,2,H7O4
5.2916,H-N-O-S,4,H7S(NO2)2
2.3634,H-I-O-S,4,H7SIO10
1.0125,H-N-O,3,H8(NO2)3
4.7501,Br-C-H-N,4,H8C2BrN
4.3391,C-H-I-N,4,H8C2IN
2.3702,C-H-N-O,4,H8C2N6O7
5.3908000000000005,C-Cl-H-N,4,H8C2NCl
3.4117,C-H-N-O,4,H8C3N2O
4.5947,C-H-N-O,4,H8C3N2O
1.686,C-H-N-O,4,H8C3N2O
5.6182,C-H-O,3,H8C3O2
4.9384,C-H,2,H8C5
2.2233,C-H-I-N-O,5,H8CIN5O3
3.6266,C-H-N,3,H8CN6
5.1351,C-H-N-O-S,5,H8CS(NO)4
4.0837,H-N-O,3,H8N2O
3.9425,H-N-O,3,H8N2O
4.3128,H-N-O,3,H8N2O
7.3786,F-H-N,3,H8NF5
1.0972,Cl-H-N-Pd,4,H8Pd(NCl3)2
1.0278,Cl-H-N-Pd,4,H8Pd(NCl3)2
1.2942,C-Cl-H-N-Pd,5,H8PdC2NCl3
2.3138,H-N-O-Pt,4,H8Pt(N4O)2
1.7803,Cl-H-N-Pt,4,H8Pt(NCl3)2
1.7313,Cl-H-N-O-Pt,5,H8PtN2(ClO)2
2.4328000000000003,Cl-H-N-O-Pt,5,H8PtN2(ClO)2
1.6046999999999998,H-O-Pt,3,H8PtO6
1.5662000000000005,H-O-Pt,3,H8PtO6
1.5297,H-O-Pt,3,H8PtO6
1.6174000000000002,H-O-Pt,3,H8PtO6
1.938,H-O-Pt,3,H8PtO6
1.9426,H-O-Pt,3,H8PtO6
5.072699999999999,H-N-O-S,4,H8S(NO2)2
3.8252,H-N-O-S,4,H8S2N2O3
3.6272,H-N-O-Se,4,H8Se(NO2)2
1.4877,Au-Cl-H-O,4,H9Au(ClO)4
3.3812,C-H-I-N-O,5,H9C3IN6O
4.4025,C-Cl-H-N-O,5,H9C3N6ClO5
3.3437,Br-C-H-N-S,5,H9C3S2BrN2
3.0945,C-H-N-O-S,5,H9C3SN4O3
3.0802,C-H-N-O-S,5,H9C3SN4O3
3.4454,C-Cl-H-N-S-Se,6,H9C3SeSN2Cl
4.6841,C-Cl-H-N,4,H9CN6Cl
2.0452000000000004,C-H-N,3,H9CN9
2.5806,Cl-H-N-Rh,4,H9Rh(NCl)3
1.8303,C-H-N-O-Rh,5,H9RhC5NO5
1.162,Au-C-H-N-O,5,HAuC4(N2O)2
1.2771,Au-H-O,3,HAuO2
1.29,Au-H-O,3,HAuO2
0.6675,Au-H-O,3,HAuO2
1.5517999999999996,Br-H,2,HBr
0.0,Br-H,2,HBr
4.486000000000001,Br-H,2,HBr
4.681,Br-H,2,HBr
1.4833,Br-H,2,HBr
2.4739000000000004,Br-H,2,HBr
4.9171,C-H,2,HC
3.0918,C-H,2,HC
0.0,C-H,2,HC
3.5572000000000004,C-H,2,HC
0.0,C-H,2,HC2
3.1266,C-H-N-O,4,HC2(NO2)2
4.415,C-H-N,3,HC2N3
0.0,C-H,2,HC3
1.1598,C-Cl-H-O,4,HC3ClO2
0.0,C-H,2,HC6
3.6401,C-H-N,3,HCN
6.577100000000001,C-H-N,3,HCN
6.5557,C-H-N,3,HCN
3.5844000000000005,C-H-N-O,4,HCN3O
4.6665,C-H-N-O,4,HCNO
4.484500000000001,C-H-N-O,4,HCNO
4.3171,C-H-O,3,HCO
0.0,Cl-H,2,HCl
5.8162,Cl-H,2,HCl
2.9355,Cl-H,2,HCl
5.1812000000000005,Cl-H,2,HCl
6.9686,F-H,2,HF
6.7187,F-H,2,HF
4.0739,H-I,2,HI
0.0,H-I-N,3,HIN2
3.1847000000000003,H-I-O,3,HIO3
1.5334,H-I-O,3,HIO4
1.4529999999999998,H-I-O,3,HIO4
0.0,H-Ir,2,HIr
2.8669,H-N,2,HN
4.1606,H-N,2,HN
1.8061,H-N,2,HN
4.363,H-N,2,HN
4.734999999999999,F-H-N,3,HNF2
0.0,F-H-N,3,HNF2
3.0612,H-N-O,3,HNO
3.4135,H-N-O,3,HNO
3.2681,H-N-O,3,HNO
3.1825,F-H-O,3,HOF
0.0,H-Os,2,HOs3
0.0,H-Pb,2,HPb
2.1819,H-I-O-Pb,4,HPb2IO2
0.0,Cl-F-H-O-Pb,5,HPb3Cl4OF
3.1006,Br-H-O-Pb,4,HPbBrO
3.4588,C-H-N-O-Pb-S,6,HPbCSNO
2.8977,Cl-H-O-Pb,4,HPbClO
3.3046,Cl-H-O-Pb,4,HPbClO
0.0,H-I-Pb,3,HPbI3
2.7209,H-I-O-Pb,4,HPbIO
0.0,H-Pd,2,HPd
0.0,H-Pd,2,HPd3
0.0,H-Pt,2,HPt3
0.0,H-Rh,2,HRh
5.8161,F-H-N-O-S,5,HS2N(O2F)2
3.0957,F-H-O-S,4,HSO3F
0.0,H-N-O-Se,4,HSeNO4
0.2029999999999998,H-N-O-Se,4,HSeNO4
0.0,H-W,2,HW
0.0,H-W,2,HW3
17.7675,He,1,He
17.6377,He,1,He
17.8914,He,1,He
16.586399999999998,He,1,He
6.2606,He-O-Si,3,HeSiO2
6.5469,He-O-Si,3,HeSiO2
6.6052,He-O-Si,3,HeSiO2
6.518,He-O-Si,3,HeSiO2
0.0,Hf,1,Hf
0.0,Al-Fe-Hf,3,Hf(Al2Fe)4
0.0,Al-Fe-Hf,3,Hf(AlFe)6
0.0,Al-Hf-Ni,3,Hf(AlNi4)3
5.7195,B-H-Hf,3,Hf(BH4)4
0.0,Co-Ge-Hf,3,Hf(CoGe)6
0.0,Co-Hf-Si,3,Hf(CoSi)2
0.0,Cu-Hf-P,3,Hf(CuP)2
0.0,Fe-Ge-Hf,3,Hf(FeGe)6
0.0,Fe-Hf-Si,3,Hf(FeSi)2
0.0,Fe-Ga-Hf,3,Hf(GaFe)6
0.0,Ga-Hf-Ni,3,Hf(GaNi4)3
0.0,Ge-Hf-Mn,3,Hf(MnGe)6
0.0,Hf-Mn-Sn,3,Hf(MnSn)6
2.953,Hf-Mo-O,3,Hf(MoO4)2
0.0,B-Hf-Nb,3,Hf(Nb2B3)4
0.0,Ho-Pt,2,Ho4Pt
0.0,Ge-Ho-Re,3,Ho4ReGe8
0.0,Ho-Rh,2,Ho4Rh
0.0,Ho-Sb,2,Ho4Sb3
0.0,Ge-Ho-Si,3,Ho4Si3Ge
0.0,Ge-Ho-Si,3,Ho4SiGe3
0.0,Ho-S-U,3,Ho4US7
4.132,Ho-O-Zr,3,Ho4Zr3O12
4.150399999999999,Ho-O-Zr,3,Ho4Zr3O12
0.0,Al-Ho-Zr,3,Ho4ZrAl15
0.0,Ge-Ho-Sb,3,Ho5(GeSb)2
0.0,Ho-Mo-O,3,Ho5(MoO6)2
0.0,Ho-O-Re,3,Ho5(ReO6)2
0.0,B-Ho-Si,3,Ho5(SiB4)2
0.0,Ho-Sb-Si,3,Ho5(SiSb)2
0.0,Au-Bi-Ho,3,Ho5BiAu2
0.0,Bi-Ho-Pd,3,Ho5BiPd2
0.0,Bi-Ho-Pt,3,Ho5BiPt2
0.0,Co-Ho-P,3,Ho5Co19P12
0.0,Bi-Co-Ho,3,Ho5Co2Bi
0.0,Cu-Ho-Pb,3,Ho5CuPb3
0.0,Ga-Ho,2,Ho5Ga3
0.0,Ge-Ho,2,Ho5Ge3
0.0,C-Ge-Ho,3,Ho5Ge3C
0.0,Ho-In,2,Ho5In3
0.0,Ho-Ir,2,Ho5Ir2
0.0,Ho-Ir,2,Ho5Ir3
0.0,Ho-Mg,2,Ho5Mg
1.1429000000000005,Ho-Mg-Mo-O,4,Ho5Mg(MoO6)2
0.4002000000000008,Ho-Mg-Mo-O,4,Ho5Mg(MoO6)2
0.0,Ho-Ni-P,3,Ho5Ni19P12
0.0,Bi-Ho-Ni,3,Ho5Ni2Bi
0.0,Ho-Ni-Sb,3,Ho5Ni2Sb
0.0,Ho-Ni-Pb,3,Ho5NiPb3
0.0,Ho-Pb,2,Ho5Pb3
0.0,Ho-Pt,2,Ho5Pt3
0.0,Ho-Rh,2,Ho5Rh3
0.0,Ho-Ru,2,Ho5Ru2
0.0,Ho-S,2,Ho5S7
0.0,Ho-Sb,2,Ho5Sb3
0.0,Au-Ho-Sb,3,Ho5SbAu2
0.0,Ho-Pd-Sb,3,Ho5SbPd2
0.0,Ho-Pt-Sb,3,Ho5SbPt2
0.0,Ho-Si,2,Ho5Si3
0.0,B-Ho-Si,3,Ho5Si3B
0.0,C-Ho-Si,3,Ho5Si3C
0.0,Ho-Sn,2,Ho5Sn3
0.0,Ho-Tl,2,Ho5Tl3
0.0,Ag-Ge-Ho-S,4,Ho6Ag(GeS7)2
0.0,Al-Cu-Ho,3,Ho6Al7Cu16
0.0,Bi-Ho-Rh,3,Ho6Bi2Rh
0.0,Co-Ho-Sn,3,Ho6Co2Sn
0.0,Bi-Co-Ho,3,Ho6CoBi2
0.0,Co-Ho-Te,3,Ho6CoTe2
0.0,Fe-Ho-O,3,Ho6Fe16O
0.0,Fe-Ho,2,Ho6Fe23
0.0,Bi-Fe-Ho,3,Ho6FeBi2
0.0,Fe-Ho-Sb,3,Ho6FeSb2
0.0,Co-Ga-Ho,3,Ho6GaCo2
0.0,Ga-Ho-Ni,3,Ho6GaNi2
0.0,Co-Ho-In,3,Ho6InCo2
2.128,Ge-Ho-Mg-S,4,Ho6Mg(GeS7)2
1.8859000000000004,Ho-Mg-O-W,4,Ho6MgWO12
2.811,Ho-Mg-O-W,4,Ho6MgWO12
3.0219000000000005,Ho-Mg-O-W,4,Ho6MgWO12
0.9654999999999996,Ge-Ho-Mn-S,4,Ho6Mn(GeS7)2
0.0,Ho-Mn,2,Ho6Mn23
0.0,Bi-Ho-Mn,3,Ho6MnBi2
0.0,Ho-Mn-Te,3,Ho6MnTe2
0.0,Ho-Ni-Sn,3,Ho6Ni2Sn
0.0359000000000002,Ho-O-Re,3,Ho6ReO12
3.4086,Ho-O-W,3,Ho6WO12
0.0,Ho-Zn,2,Ho6Zn23
0.0,Cu-Ho-Sb,3,Ho7Cu5Sb
0.0,Co-Ge-Ho-In,4,Ho7In(CoGe3)4
0.0,Al-Ge-Ho,3,Ho8(AlGe3)3
0.0,C-Ho-Rh,3,Ho8Rh5C12
0.0,Ho-O-Sb,3,Ho8Sb3O8
0.0,Ag-Ho,2,HoAg
3.1615,Ag-Ho-O-W,4,HoAg(WO4)2
0.0,Ag-Ho,2,HoAg2
0.0,Ag-Ge-Ho,3,HoAgGe
0.0,Ag-Hg-Ho,3,HoAgHg2
0.0,Ag-Ho-Pb,3,HoAgPb
0.4761000000000002,Ag-Ho-Se,3,HoAgSe2
0.0,Ag-Ho-Se,3,HoAgSe2
1.2712,Ag-Ho-Se,3,HoAgSe2
0.6289000000000002,Ag-Ho-Se,3,HoAgSe2
0.6869000000000001,Ag-Ho-Se,3,HoAgSe2
0.5030999999999999,Ag-Ho-Se,3,HoAgSe2
0.0,Ag-Ho-Sn,3,HoAgSn
0.0,Ag-Ho-Sn,3,HoAgSn2
1.1020000000000003,Ag-Ho-Te,3,HoAgTe2
0.8999000000000006,Ag-Ho-Te,3,HoAgTe2
0.0,Al-Ho,2,HoAl
0.0,Al-Ho,2,HoAl2
0.0,Al-Ho-Ni,3,HoAl2Ni
0.0,Al-Ho,2,HoAl3
5.5914,Al-B-Ho-O,4,HoAl3(BO3)4
5.4672,Al-B-Ho-O,4,HoAl3(BO3)4
0.0,Al-Cu-Ho,3,HoAl3Cu
0.0,Al-Ho-Ni,3,HoAl3Ni2
0.0,Al-Ho-Ni,3,HoAl4Ni
0.0,Al-Au-Ho,3,HoAl7Au3
0.0,Al-Fe-Ho,3,HoAl7Fe5
0.0,Ag-Al-Ho,3,HoAlAg2
0.0,Al-Au-Ho,3,HoAlAu
0.0,Al-Au-Ho,3,HoAlAu2
0.0,Al-B-Ho,3,HoAlB14
0.0,Al-B-Ho,3,HoAlB4
0.0,Al-Co-Ho,3,HoAlCo
0.0,Al-Cu-Ho,3,HoAlCu
0.0,Al-Cu-Ho,3,HoAlCu4
0.0,Al-Fe-Ho,3,HoAlFe
0.0,Al-Ga-Ho,3,HoAlGa
0.0,Al-Ge-Ho,3,HoAlGe
0.0,Al-Ho-Ni,3,HoAlNi
0.0,Al-Ho-Ni,3,HoAlNi4
5.8359,Al-Ho-O,3,HoAlO3
0.0,Al-Ho-Pd,3,HoAlPd
0.0,Al-Ho-Pt,3,HoAlPt
0.0,Al-Ho-Rh,3,HoAlRh
0.0,Al-Ho-Si,3,HoAlSi
0.0,As-Ho,2,HoAs
0.0,As-Ho,2,HoAs3
3.609,As-Ho-O,3,HoAsO4
3.5415,As-Ho-O,3,HoAsO4
0.0,As-Ho-Pd,3,HoAsPd
0.0,As-Ho-Pt,3,HoAsPt
0.0177000000000004,As-Ho-S,3,HoAsS
0.0067000000000003,As-Ho-Se,3,HoAsSe
0.2103000000000001,As-Ho-Se,3,HoAsSe
0.0,As-Ho-Se,3,HoAsSe
0.0,Au-Ho,2,HoAu
0.0,Au-Ho,2,HoAu2
0.0,Au-Ho,2,HoAu3
0.0,Au-Ho,2,HoAu4
0.0,B-Ho,2,HoB12
0.0,B-Ho,2,HoB2
0.0,B-C-Ho,3,HoB2C
0.0,B-Ho-Ir,3,HoB2Ir3
0.0,B-Ho-Os,3,HoB2Os
0.0,B-C-Ho-Rh,4,HoB2Rh2C
0.0,B-Ho-Rh,3,HoB2Rh3
0.0,B-Ho-Ru,3,HoB2Ru
0.0,B-Ho-Ru,3,HoB2Ru3
0.0,B-Ho-Mo,3,HoB3Mo
0.0,B-Ho,2,HoB4
0.5762,B-Ho-Mo,3,HoB4Mo
0.0,B-Ho-Os,3,HoB4Os
0.0,B-Ho-Rh,3,HoB4Rh
0.0,B-Ho-Rh,3,HoB4Rh7
0.0,B-Ho-Ru,3,HoB4Ru
0.2705000000000002,B-Ho-W,3,HoB4W
0.0,B-Ho,2,HoB6
0.0,B-Ho-Mo,3,HoB7Mo3
0.0,B-C-Ho,3,HoBC
0.0,B-H-Ho,3,HoBH4
2.6416000000000004,B-Ho-O,3,HoBO3
5.4365,B-Ho-O,3,HoBO3
4.5465,B-Ho-O,3,HoBO3
5.089799999999999,B-Ho-O,3,HoBO3
5.367,B-Ho-O,3,HoBO3
0.0,B-Ho-Pd,3,HoBPd3
0.0,B-Ho-Rh,3,HoBRh3
0.0,Be-Ho,2,HoBe13
0.0,Be-Cu-Ho,3,HoBeCu4
1.9256,Be-F-Ho-N,4,HoBeNF6
0.0,Be-Ho-O,3,HoBeO3
0.0,Bi-Ho,2,HoBi
1.3664999999999994,Bi-Br-Ho-O,4,HoBi2BrO4
1.3709999999999996,Bi-Cl-Ho-O,4,HoBi2ClO4
1.3910999999999998,Bi-Ho-I-O,4,HoBi2IO4
0.0,Bi-Ho,2,HoBi3
3.1343,Bi-Ho-O,3,HoBiO3
2.4719,Bi-Ho-O,3,HoBiO3
2.7472,Bi-Ho-O,3,HoBiO3
0.0,Bi-Ho-Pd,3,HoBiPd
0.0,Bi-Ho-Pt,3,HoBiPt
0.0,Bi-Ho-Rh,3,HoBiRh
1.0659,Bi-Ho-Te,3,HoBiTe3
0.0,Br-Ho,2,HoBr2
2.8409,Br-Ho,2,HoBr3
4.5018,Br-Ho-O,3,HoBrO
4.3862000000000005,Br-Ho-O,3,HoBrO
3.6688,Br-Ho-O,3,HoBrO
0.0,C-Ho,2,HoC2
0.7752,C-Ho-O,3,HoCO4
0.0,Cd-Ho,2,HoCd
0.0,Cd-Ho,2,HoCd2
0.0,Cd-Ho,2,HoCd3
0.0,Ag-Cd-Ho,3,HoCdAg2
0.0,Au-Cd-Ho,3,HoCdAu
0.0,Au-Cd-Ho,3,HoCdAu2
0.0,Cd-Cu-Ho,3,HoCdCu4
0.0,Cd-Hg-Ho,3,HoCdHg2
0.0,Cd-Ho-In,3,HoCdIn
0.0,Cd-Ho-Ni,3,HoCdNi4
0.0,Cd-Ho-Pd,3,HoCdPd2
0.0,Cd-Ho-Pt,3,HoCdPt2
0.0,Cd-Ho-Rh,3,HoCdRh2
0.0,Cl-Ho,2,HoCl2
3.7011,Cl-Ho,2,HoCl3
5.1804,Cl-Ho-O,3,HoClO
0.0,Cl-Ho-O,3,HoClO2
0.0,Co-Ho,2,HoCo2
0.0,Co-Ho,2,HoCo3
0.0,B-Co-Ho,3,HoCo3B2
0.0,Co-Cu-Ho,3,HoCo3Cu2
0.0,Co-Ho-Ni,3,HoCo3Ni2
0.0,Co-Ho-P,3,HoCo3P2
0.0,B-Co-Ho,3,HoCo4B
0.0,Co-Cu-Ho,3,HoCo4Cu
0.0,Co-Ho-Ni,3,HoCo4Ni
0.0,Co-Ho,2,HoCo5
0.0,Co-Ho-P,3,HoCo5P3
0.0,B-Co-Ho,3,HoCoB4
0.0,C-Co-Ho,3,HoCoC
0.0,C-Co-Ho,3,HoCoC2
0.0,Co-Ge-Ho,3,HoCoGe
0.0,Co-Ge-Ho,3,HoCoGe2
0.0,Co-Ho-Ni,3,HoCoNi
0.1620000000000001,Co-Ho-O,3,HoCoO3
0.0,Co-Ho-O,3,HoCoO3
0.0,Co-Ho-Ru,3,HoCoRu
0.0,Co-Ho-Si,3,HoCoSi
0.0,Co-Ho-Si,3,HoCoSi2
0.0,Co-Ho-Sn,3,HoCoSn
0.0,Co-Ho-Sn,3,HoCoSn2
0.0,Cr-Ho-O,3,HoCr2O2
0.0,Cr-Ho-O,3,HoCr2O6
0.0,C-Cr-Ho-Si,4,HoCr2Si2C
0.1677999999999997,B-Cr-Ho,3,HoCrB4
2.9071,Cr-Ge-Ho-O,4,HoCrGeO5
0.0,Cr-Ho-O,3,HoCrO2
2.2162,Cr-Ho-O,3,HoCrO3
0.0588999999999999,Cr-Ho-O,3,HoCrO4
0.2967999999999999,Cr-Ho-O,3,HoCrO4
2.6338,Cr-Ho-O-Te,4,HoCrTeO6
1.4636,Cr-Ho-O-Te,4,HoCrTeO6
0.0,Cu-Ho,2,HoCu
0.9253,Cu-Ho-O-W,4,HoCu(WO4)2
0.0,Cu-Ho,2,HoCu2
0.0,Cu-Ho-O-Se,4,HoCu2SeO2
0.0,Ag-Cu-Ho,3,HoCu4Ag
0.0,Au-Cu-Ho,3,HoCu4Au
0.0,Cu-Ho-Ni,3,HoCu4Ni
0.0,Cu-Ho-Pd,3,HoCu4Pd
0.0,Cu-Ho,2,HoCu5
0.0,Cu-Ho-Sn,3,HoCu5Sn
0.0,As-Cu-Ho,3,HoCuAs2
0.0,Cu-Ge-Ho,3,HoCuGe
2.5344,Cu-Ho-O,3,HoCuO2
2.5567,Cu-Ho-O,3,HoCuO2
0.0,Cu-Ho-O,3,HoCuO3
0.0,Cu-Ho-P,3,HoCuP2
0.0,Cu-Ho-Pb,3,HoCuPb
1.5995999999999997,Cu-Ho-Pb-S,4,HoCuPbS3
1.6072999999999995,Cu-Ho-S,3,HoCuS2
1.8811000000000004,Cu-Ho-S,3,HoCuS2
0.0,Cu-Ho-Sb,3,HoCuSb2
0.5093999999999994,Cu-Ho-Se,3,HoCuSe2
1.1100000000000003,Cu-Ho-Se,3,HoCuSe2
0.0,Cu-Ho-Si,3,HoCuSi
0.0,Cu-Ho-Sn,3,HoCuSn
0.3895999999999997,Cu-Ho-Te,3,HoCuTe2
0.0,Er-Ho,2,HoEr
0.0,Er-Ho,2,HoEr3
0.0,Ag-Er-Ho,3,HoErAg2
0.0,Al-Er-Ho,3,HoErAl2
0.0,Cd-Er-Ho,3,HoErCd2
0.0,Cu-Er-Ho,3,HoErCu2
0.0,Er-Hg-Ho,3,HoErHg2
0.0,Er-Ho-In,3,HoErIn2
0.0,Er-Ho-Ir,3,HoErIr2
0.0,Er-Ho-Mg,3,HoErMg2
1.4474,Er-Ho-O,3,HoErO3
3.077500000000001,Er-Ho-O,3,HoErO3
0.0,Er-Ho-Pd,3,HoErPd2
0.0,Er-Ho-Rh,3,HoErRh2
0.0,Er-Ho-Ru,3,HoErRu2
0.0,Er-Ho-Tl,3,HoErTl2
0.0,Er-Ho-Zn,3,HoErZn2
7.7482,F-Ho,2,HoF3
0.0,Fe-Ho-Mo-N,4,HoFe10Mo2N
0.0,Fe-Ho-Re,3,HoFe11Re
0.0,Fe-Ho,2,HoFe2
0.0,C-Fe-Ho-Si,4,HoFe2SiC
0.0,Fe-Ho,2,HoFe3
2.3479,B-Fe-Ho-O,4,HoFe3(BO3)4
0.0,Cu-Fe-Ho-O,4,HoFe4(CuO4)3
0.0,Fe-Ho,2,HoFe5
0.0,Fe-Ho-P,3,HoFe5P3
0.0,Fe-Ge-Ho-Sn,4,HoFe6(Sn2Ge)2
0.0,B-Fe-Ho,3,HoFeB4
0.0,C-Fe-Ho,3,HoFeC2
0.0,Co-Fe-Ho,3,HoFeCo
0.0,Cu-Fe-Ho,3,HoFeCu
0.0,Fe-Ge-Ho,3,HoFeGe2
1.2691,Fe-Ge-Ho-O,4,HoFeGe2O7
0.0,Fe-Ho-Ni,3,HoFeNi
0.0,Fe-Ho-Ni,3,HoFeNi4
1.5675,Fe-Ho-O,3,HoFeO3
0.0,Fe-Ho-Ru,3,HoFeRu
0.0,Fe-Ho-Si,3,HoFeSi
0.0,Ga-Ho,2,HoGa
0.0,Ga-Ho,2,HoGa2
0.0,Co-Ga-Ho,3,HoGa2Co3
0.0,Ga-Ho-Ni,3,HoGa2Ni
0.0,Ga-Ho-Ni,3,HoGa2Ni3
0.0,Ga-Ho-Pd,3,HoGa2Pd
0.0,Ga-Ho,2,HoGa3
0.0,Ga-Ho-Os,3,HoGa3Os
0.0,Ga-Ho-Ru,3,HoGa3Ru
0.0,Ga-Ho-Ni,3,HoGa4Ni
0.0,Co-Ga-Ho,3,HoGa5Co
0.0,Ga-Ho,2,HoGa6
0.0,Ag-Ga-Ho,3,HoGaAg
0.0,Au-Ga-Ho,3,HoGaAu
0.0,Co-Ga-Ho,3,HoGaCo
0.0,Ga-Ho-Ni,3,HoGaNi
3.6066,Ga-Ho-O,3,HoGaO3
2.8722,Ga-Ho-O,3,HoGaO3
0.0,Ga-Ho-Pd,3,HoGaPd
0.0,Ga-Ho-Pt,3,HoGaPt
0.0,Ga-Ho-Rh,3,HoGaRh2
0.0,Ge-Ho,2,HoGe
0.0,Ge-Ho-Ir,3,HoGe2Ir
0.0,Ge-Ho-Pd,3,HoGe2Pd
0.0,Ge-Ho-Pt,3,HoGe2Pt
0.0,Ge-Ho,2,HoGe3
0.0,Au-Ge-Ho,3,HoGeAu
0.0,Ge-Ho-Ir,3,HoGeIr
0.0,Ge-Ho-O,3,HoGeO3
0.0,Ge-Ho-Pd,3,HoGePd
0.0,Ge-Ho-Pd,3,HoGePd2
0.0,Ge-Ho-Pt,3,HoGePt
0.0,Ge-Ho-Rh,3,HoGeRh
0.0,Ge-Ho-Ru,3,HoGeRu
0.1956,C-F-H-Ho-O,5,HoH12C2O4F
0.0,H-Ho,2,HoH2
4.7027,Cl-H-Ho-O,4,HoH2ClO2
0.0,H-Ho,2,HoH3
3.8305,C-F-H-Ho-O,5,HoH8C2O8F
4.4596,C-H-Ho-N-O,5,HoH9C5(NO4)2
3.9486,H-Ho-O,3,HoHO2
4.522500000000001,H-Ho-O,3,HoHO2
4.757499999999999,H-Ho-O,3,HoHO2
4.1937,H-Ho-O,3,HoHO2
1.4981000000000004,H-Ho-Se,3,HoHSe
6.8874,F-Hf-Ho,3,HoHfF7
0.0,Hf-Ho-Os,3,HoHfOs2
0.0,Hf-Ho-Ru,3,HoHfRu2
0.0,Hg-Ho,2,HoHg
0.0,Hg-Ho,2,HoHg2
0.0,Hg-Ho,2,HoHg3
2.2173,Ho-I,2,HoI3
2.2234,Ho-I-O,3,HoIO
3.454600000000001,Ho-I-O,3,HoIO
0.0,Ho-In,2,HoIn
0.0,Ho-In-Ni,3,HoIn2Ni9
0.0,Ho-In,2,HoIn3
0.0,Co-Ho-In,3,HoIn5Co
0.0,Ho-In-Rh,3,HoIn5Rh
0.0,Cu-Ho-In,3,HoIn7Cu5
0.0,Ag-Ho-In,3,HoInAg2
0.0,Au-Ho-In,3,HoInAu
0.0,Au-Ho-In,3,HoInAu2
0.0,Co-Ho-In,3,HoInCo2
0.0,Co-Ho-In,3,HoInCo4
0.0,Cu-Ho-In,3,HoInCu
0.0,Cu-Ho-In,3,HoInCu2
2.6521,Ge-Ho-In-O,4,HoInGe2O7
0.0,Ho-In-Ir,3,HoInIr
0.0,Ho-In-Ni,3,HoInNi
0.0,Ho-In-Ni,3,HoInNi4
1.9681,Ho-In-O,3,HoInO3
2.5765,Ho-In-O,3,HoInO3
0.0,Ho-In-Pd,3,HoInPd
0.0,Ho-In-Pd,3,HoInPd2
0.0,Ho-In-Pt,3,HoInPt
0.0,Ho-In-Pt,3,HoInPt2
0.0,Ho-In-Pt,3,HoInPt4
0.0,Ho-In-Rh,3,HoInRh
0.0,Ho-In-Rh,3,HoInRh2
0.0,Ho-Ir,2,HoIr
0.0,Ho-Ir,2,HoIr2
0.0,Ho-Lu,2,HoLu3
0.0,Ag-Ho-Lu,3,HoLuAg2
0.0,Al-Ho-Lu,3,HoLuAl2
0.0,Au-Ho-Lu,3,HoLuAu2
0.0,Cd-Ho-Lu,3,HoLuCd2
0.0,Cu-Ho-Lu,3,HoLuCu2
0.0,Hg-Ho-Lu,3,HoLuHg2
0.0,Ho-In-Lu,3,HoLuIn2
0.0,Ho-Ir-Lu,3,HoLuIr2
0.0,Ho-Lu-Mg,3,HoLuMg2
4.5867,Ho-Lu-O,3,HoLuO3
0.0,Ho-Lu-Pd,3,HoLuPd2
0.0,Ho-Lu-Rh,3,HoLuRh2
0.0,Ho-Lu-Ru,3,HoLuRu2
0.0,Ho-Lu-Tl,3,HoLuTl2
0.0,Ho-Lu-Zn,3,HoLuZn2
0.0,Ho-Mg,2,HoMg
0.0,Bi-Ho-Mg-O,4,HoMg(BiO3)2
0.0,Co-Ho-Mg-O,4,HoMg(CoO3)2
0.0,Fe-Ho-Mg-O,4,HoMg(FeO3)2
1.1227,Ho-Mg-Mo-O,4,HoMg(MoO3)2
0.0,Ho-Mg-Ni-O,4,HoMg(NiO3)2
0.0,Ho-Mg-O-Sb,4,HoMg(SbO3)2
0.0,Ho-Mg-O-Sn,4,HoMg(SnO3)2
1.9251999999999996,Ho-Mg-O-W,4,HoMg(WO3)2
0.0,Ho-Mg,2,HoMg2
0.0,Cu-Ho-Mg,3,HoMg2Cu9
0.0,Ho-Mg-Sc,3,HoMg2Sc
0.0,Ho-Mg,2,HoMg3
0.0,Ho-Mg,2,HoMg5
0.0,Ag-Ho-Mg,3,HoMgAg
0.0,Ag-Ho-Mg,3,HoMgAg2
0.0,Au-Ho-Mg,3,HoMgAu2
0.0,Cd-Ho-Mg,3,HoMgCd2
0.3339000000000003,Cr-Ho-Mg-O,4,HoMgCr2O6
0.0,Ga-Ho-Mg,3,HoMgGa
0.0,Hg-Ho-Mg,3,HoMgHg2
0.0,Ho-In-Mg,3,HoMgIn
0.0,Ho-Mg-Mn-O,4,HoMgMn2O6
0.0,Ho-Mg-Pd,3,HoMgPd
0.0,Ho-Mg-Rh,3,HoMgRh2
0.0,Ho-Mg-S,3,HoMgS3
0.0,Ho-Mg-Se,3,HoMgSe3
0.0,Ho-Mg-Sn,3,HoMgSn
0.0,Ho-Mg-O-Ti,4,HoMgTi2O6
0.0,Ho-Mg-Tl,3,HoMgTl
0.0,Ho-Mg-Tl,3,HoMgTl2
0.8795000000000002,Ho-Mg-O-V,4,HoMgV2O6
0.0,Ho-Mg-Zn,3,HoMgZn2
0.0,Ho-Mn,2,HoMn12
0.0,Ho-Mn,2,HoMn2
0.0,Ho-Mn-O,3,HoMn2O4
1.1551999999999998,Ho-Mn-O,3,HoMn2O5
0.0,C-Ho-Mn-Si,4,HoMn2SiC
0.0,Ho-Mn-O-Zn,4,HoMn2ZnO6
0.0,Cu-Ho-Mn-O,4,HoMn4(CuO4)3
0.0,Ge-Ho-Mn-Sn,4,HoMn6(Sn2Ge)2
0.0,Al-Ho-Mn,3,HoMnAl
0.0,B-Ho-Mn,3,HoMnB4
0.0,Fe-Ho-Mn,3,HoMnFe
0.0,Ga-Ho-Mn,3,HoMnGa
0.0,Ge-Ho-Mn,3,HoMnGe
0.0,Ho-In-Mn,3,HoMnIn
0.0,Ho-Mn-Ni,3,HoMnNi2
1.0638,Ho-Mn-O,3,HoMnO3
0.4942000000000002,Ho-Mn-O,3,HoMnO3
0.0,Ho-Mn-O,3,HoMnO3
0.4351000000000002,Ho-Mn-O,3,HoMnO3
0.0,Ho-Mn-Si,3,HoMnSi
0.0,C-Ho-Mo,3,HoMoC2
2.7162,Cl-Ho-Mo-O,4,HoMoClO4
3.4827,F-Ho-Mo-O,4,HoMoO4F
0.0,Ho-Mo-O,3,HoMoO5
0.0,Ho-N,2,HoN
0.0874999999999999,Ho-N,2,HoN
0.0873999999999999,Ho-N-O,3,HoN3O10
2.7456,Ho-N-O,3,HoNO4
3.4844000000000004,Ho-Nb-O,3,HoNbO4
0.0,Ho-Nb-Os,3,HoNbOs2