eg,chemsys,nelements,formula
0.0078,Ca-Cu-O-P-Ru,5,CaCuP4(RuO7)2
0.008,Ca-Cu-O-P-Ru,5,CaCuP4(RuO7)2
0.0,Ca-Cu-S,3,CaCuS2
0.0,Ca-Cu-Sb,3,CaCuSb
0.0,Ca-Cu-Si,3,CaCuSi
0.1219999999999998,Ca-Cu-H-O-Si,5,CaCuSiH2O5
0.0,Ca-Cu-Sn,3,CaCuSn
0.0,Ca-Co-Dy-O,4,CaDy(CoO3)4
0.0,Ca-Dy-Fe-O,4,CaDy(FeO3)4
0.0,Ca-Dy-Ni-O,4,CaDy(NiO3)4
0.0,Ca-Dy,2,CaDy3
0.0,Al-Ca-Dy,3,CaDyAl4
0.0,Ca-Dy-Hg,3,CaDyHg2
0.0,Ca-Dy-Mn-O,4,CaDyMn4O12
0.0,Ca-Dy-Mn-O-Sn,5,CaDyMnSnO6
0.6250999999999998,Ca-Dy-Mn-O-Sn,5,CaDyMnSnO6
0.0,Ca-Dy-Rh,3,CaDyRh2
0.0,Ca-Dy-O-V,4,CaDyV4O12
0.0,Ca-Dy-Zn,3,CaDyZn2
0.0,Ca-Er-O-Zr,4,CaEr4Zr4O14
0.5124000000000004,Ca-Er-O-Zr,4,CaEr4Zr4O14
0.1917999999999997,Ca-Er-O-Zr,4,CaEr4Zr4O14
0.0,Ca-Er-O-Ta,4,CaEr6Ta2O14
0.0,Al-Ca-Er,3,CaErAl4
0.0,Ca-Er-Rh,3,CaErRh2
0.0,Ca-Co-Eu-O,4,CaEu(CoO3)4
0.0,Ca-Eu-Fe-O,4,CaEu(FeO3)4
0.0,Ca-Eu-Ge-O,4,CaEu(GeO3)4
0.0,Ca-Eu-Ni-O,4,CaEu(NiO3)4
0.0,Ca-Eu-O-Sn,4,CaEu(SnO3)4
0.0,Ca-Cu-Eu-O,4,CaEu2(CuO3)2
0.0,Be-Ca-Eu-O,4,CaEu2BeO5
0.0,Ca-Eu-O,3,CaEu2O3
0.6178000000000008,Ca-Eu-O-W,4,CaEu2WO6
0.0,Ca-Eu,2,CaEu3
0.0,Ca-Eu-O,3,CaEu4O5
0.0,Al-Bi-Ca-Eu-O,5,CaEuAlBiO6
0.0,Ca-Cd-Eu,3,CaEuCd2
0.0,Ca-Cr-Eu-O-Sb,5,CaEuCrSbO6
0.0,Ca-Dy-Eu-Ni-O,5,CaEuDyNiO6
9.999999999976694e-05,Ca-Dy-Eu-O-V,5,CaEuDyVO6
0.0,Ca-Eu-Ga,3,CaEuGa2
0.2105999999999994,Ca-Eu-Gd-O-Sb,5,CaEuGdSbO6
0.2073,Ca-Eu-H-Ru,4,CaEuH6Ru
0.0,Ca-Eu-Hf-O,4,CaEuHf4O12
0.0,Ca-Eu-Fe-Hf-O,5,CaEuHfFeO6
0.0,Ca-Eu-Ga-Hf-O,5,CaEuHfGaO6
0.0,Ca-Eu-Hf-Nb-O,5,CaEuHfNbO6
0.2339999999999999,Ca-Eu-Hf-O-Sn,5,CaEuHfSnO6
0.0,Ca-Eu-Hf-O-Ti,5,CaEuHfTiO6
0.0,Ca-Eu-Hf-O-V,5,CaEuHfVO6
0.0,Ca-Eu-Hf-O-W,5,CaEuHfWO6
0.3977000000000004,Ca-Eu-Hf-O-Zr,5,CaEuHfZrO6
0.0,Ca-Eu-Hg,3,CaEuHg2
0.0,Ca-Eu-In,3,CaEuIn2
0.0,Ca-Eu-Fe-In-O,5,CaEuInFeO6
0.0,Ca-Eu-In-O-Sb,5,CaEuInSbO6
0.0,Ca-Eu-Mg,3,CaEuMg2
0.0,Bi-Ca-Eu-Mg-O,5,CaEuMgBiO6
0.0,Ca-Eu-Mg-Nb-O,5,CaEuMgNbO6
0.0,Ca-Eu-Mn-O,4,CaEuMn4O12
0.2839999999999998,Ca-Eu-Mn-O-W,5,CaEuMnWO6
0.0,Ca-Eu-Fe-Nb-O,5,CaEuNbFeO6
0.0,Ca-Eu-Nb-O-W,5,CaEuNbWO6
0.0,Ca-Eu-Nb-O-Zn,5,CaEuNbZnO6
0.0,Bi-Ca-Eu-Ni-O,5,CaEuNiBiO6
0.0,Ca-Eu-O,3,CaEuO2
0.0,Ca-Eu-S,3,CaEuS2
0.0,Ca-Eu-Si,3,CaEuSi4
0.0,Ca-Eu-O-Ti,4,CaEuTi4O12
0.2858999999999998,Ca-Eu-O-Sn-Ti,5,CaEuTiSnO6
0.0,Ca-Eu-Tl,3,CaEuTl2
0.0,Ca-Eu-O-V,4,CaEuV2O6
0.0,Ca-Eu-O-V,4,CaEuV4O12
0.2846999999999999,Ca-Eu-Nb-O-Y,5,CaEuYNbO6
0.1520000000000001,Ca-Eu-O-Sb-Y,5,CaEuYSbO6
0.0,Ca-Eu-O-V-Y,5,CaEuYVO6
0.0,Ca-Eu-Zn,3,CaEuZn2
0.0,Ca-Eu-O-Sb-Zn,5,CaEuZnSbO6
0.0,Ca-Eu-O-Zr,4,CaEuZr2O6
0.0,Ca-Cr-Eu-O-Zr,5,CaEuZrCrO6
0.0,Ca-Eu-Ga-O-Zr,5,CaEuZrGaO6
0.0,Ca-Eu-Mn-O-Zr,5,CaEuZrMnO6
0.0,Ca-Eu-Nb-O-Zr,5,CaEuZrNbO6
0.375,Ca-Eu-O-Sn-Zr,5,CaEuZrSnO6
0.0,Ca-Eu-O-Ti-Zr,5,CaEuZrTiO6
0.0,Ca-Eu-O-V-Zr,5,CaEuZrVO6
0.0,Ca-Eu-O-W-Zr,5,CaEuZrWO6
0.0,Ca-F,2,CaF
7.467700000000001,Ca-F,2,CaF2
7.1157,Ca-F,2,CaF2
5.1414,Ca-F,2,CaF2
6.2538,Ca-F,2,CaF2
0.0,Ca-F,2,CaF3
0.0,Ca-Fe-Ge-O,4,CaFe(GeO3)4
0.0,Ca-Fe-Mo-O,4,CaFe(MoO3)2
4.344900000000001,Ca-Fe-O-P,4,CaFe(PO3)4
3.438,Ca-Fe-O-Si,4,CaFe(SiO3)2
0.0,As-Ca-Fe-O,4,CaFe2(AsO5)2
0.0,Ca-Fe-O-P,4,CaFe2(PO5)2
1.8921,Ca-Fe-O-Si,4,CaFe2(SiO3)4
0.0,Bi-Ca-Fe-O,4,CaFe2BiO6
0.981,Ca-Cu-Fe-O-Sb,5,CaFe2Cu3(SbO6)2
0.6391,Ca-F-Fe,3,CaFe2F10
0.0,Ca-Fe-O,3,CaFe2O5
0.0,Ca-Fe-S,3,CaFe2S5
2.6572999999999998,Ca-Fe-O-P-Sb,5,CaFe2Sb2(PO4)6
2.9331000000000005,Ca-Fe-O-Si,4,CaFe3(SiO3)4
0.0,Ca-Co-Fe-O,4,CaFe3Co5O16
1.3614000000000002,Ca-Fe-O,3,CaFe3O5
1.6386000000000005,Ca-Fe-O-P,4,CaFe3P3O13
0.0,Ca-Cu-Fe-O,4,CaFe4(CuO4)3
1.2373000000000005,Ca-Fe-O-P,4,CaFe4(PO4)4
1.6928,Ca-Fe-O-P,4,CaFe4(PO4)4
0.0,Ca-Fe-O,3,CaFe4O9
0.0,As-Ca-Fe,3,CaFe5As3
1.2474999999999996,Ca-Fe-O,3,CaFe5O7
0.3561999999999998,Ca-F-Fe-O,4,CaFe6(OF2)4
1.8132,Ca-F-Fe-O,4,CaFe6(OF2)4
1.3400999999999998,Ca-F-Fe-O,4,CaFe6(OF2)4
1.6716000000000002,Ca-F-Fe-O,4,CaFe6(OF2)4
1.6723,Ca-F-Fe-O,4,CaFe6(OF2)4
0.0,Ca-F-Fe-O,4,CaFe8(O7F)2
1.7675999999999998,Ca-F-Fe-O,4,CaFe8(OF)8
0.0,As-Ca-F-Fe,4,CaFeAsF
1.7460999999999998,As-Ca-Fe-O,4,CaFeAsO5
1.592,B-Ca-Fe-H-O-P,6,CaFeBP2(HO5)2
0.0,Ca-Cl-Fe-O,4,CaFeClO2
0.6341000000000001,Ca-Cl-Fe-O,4,CaFeClO2
0.3702000000000001,Ca-Cl-Fe-O,4,CaFeClO2
2.8537,Ca-F-Fe,3,CaFeF4
3.6038,Ca-F-Fe,3,CaFeF5
2.833,Ca-F-Fe,3,CaFeF5
0.0,Ca-F-Fe,3,CaFeF6
0.0,Ca-Fe-Mo-O,4,CaFeMoO6
1.1342,Ca-Fe-O,3,CaFeO2
2.5069000000000004,Ca-Fe-O,3,CaFeO2
1.806,Ca-Fe-O,3,CaFeO2
1.4033999999999998,Ca-Fe-O,3,CaFeO2
0.0402000000000004,Ca-Fe-O,3,CaFeO2
0.0,Ca-Fe-O,3,CaFeO3
0.0607000000000002,Ca-Fe-O,3,CaFeO3
0.7279,Ca-Fe-O-Re,4,CaFeReO6
0.0,Ca-Fe-O-S,4,CaFeSO
1.9172,Ca-Fe-O-Se,4,CaFeSeO
0.0,Ca-Fe-Rh-Si,4,CaFeSi2Rh
0.0,Ca-Fe-O-Si,4,CaFeSiO5
2.4913,Ca-Fe-O-P-Sn,5,CaFeSn(PO4)3
0.0,Ca-Fe-O-W,4,CaFeWO6
0.0,Ca-Ga,2,CaGa
0.0,Ca-Ga,2,CaGa2
0.0,Ca-Cu-Ga-O-Ru,5,CaGa2Cu3(RuO6)2
0.6444000000000001,Ca-Cu-Ga-O-Sb,5,CaGa2Cu3(SbO6)2
0.0,Ca-Ga-Ni,3,CaGa2Ni
0.0,Ca-Co-Ga,3,CaGa3Co2
0.0,Ca-Ga-Ni,3,CaGa3Ni2
0.0,Ca-Ga-Pt,3,CaGa3Pt
0.0,Ca-Ga,2,CaGa4
1.9593,Ca-Ga-O-W,4,CaGa4(WO6)2
1.8757,Ca-Ga-O-W,4,CaGa4(WO6)2
2.5387,Ca-Ga-O,3,CaGa4O7
0.0,Au-Ca-Ga,3,CaGaAu
3.9612,B-Ca-Ga-O,4,CaGaBO4
3.6637,B-Bi-Ca-Ga-O,5,CaGaBiB2O7
0.0,Ca-Cu-Ga,3,CaGaCu
0.9838,Ca-Cu-Ga-Se,4,CaGaCu3Se4
0.0,Ca-Ga-Ge,3,CaGaGe
0.5269000000000004,Ca-Ga-Ge-H,4,CaGaGeH
0.0,Ca-Ga-H,3,CaGaH4
4.1497,Ca-Ga-H,3,CaGaH5
0.0,Ca-Ga-N,3,CaGaN
0.0,Ca-Ga-Pt,3,CaGaPt
0.0,Ca-Ga-Si,3,CaGaSi
0.3416000000000005,Ca-Ga-H-Si,4,CaGaSiH
0.0,Ca-Ga-Sn,3,CaGaSn
0.2478999999999995,Ca-Ga-H-Sn,4,CaGaSnH
2.5808000000000004,Be-Ca-Gd-O,4,CaGd2BeO5
3.26,Ca-Gd-O,3,CaGd2O4
2.4804,Ca-Gd-O,3,CaGd2O4
2.9964,Ca-Gd-O,3,CaGd2O4
2.4483000000000006,Al-Ca-Gd-O,4,CaGdAlO4
0.0,Ca-Cd-Gd,3,CaGdCd2
0.0,Ca-Gd-Hg,3,CaGdHg2
0.0,Ca-Gd-Pd,3,CaGdPd2
0.0,Ca-Gd-Rh,3,CaGdRh2
0.0,Ca-Gd-S,3,CaGdS2
0.0,Ca-Gd-Zn,3,CaGdZn2
0.0,Ca-Ge,2,CaGe
3.9027,Ca-Ge-O-P,4,CaGe(PO4)2
0.0,Ca-Ge,2,CaGe2
2.4523,Ca-Ge-O,3,CaGe2O5
2.6966,Ca-Ge-O,3,CaGe2O5
2.4967,Ca-Ge-O,3,CaGe2O5
0.0,Ca-Ge-Pt,3,CaGe2Pt
2.147,Ca-Ge-O-W,4,CaGe2WO6
0.0,Ca-Ge,2,CaGe3
0.0,Ca-Ge-N,3,CaGeN2
2.6621999999999995,Ca-Ge-N,3,CaGeN2
0.5017000000000005,Ca-Ge-O,3,CaGeO3
3.4813,Ca-Ge-O,3,CaGeO3
3.2925,Ca-Ge-O,3,CaGeO3
3.3911,Ca-Ge-O,3,CaGeO3
2.0287,Ca-Ge-O,3,CaGeO3
0.0,Ca-Ge-Pt,3,CaGePt
4.1372,Br-Ca-H-O,4,CaH12(BrO3)2
4.986800000000001,Ca-Cl-H-O,4,CaH12(ClO3)2
0.0,Ca-Cl-H-W,4,CaH12(W3Cl)2
4.8958,C-Ca-H-O,4,CaH12CO9
4.1309000000000005,Ca-H-O-S,4,CaH12S2O9
0.7047000000000003,Ca-H,2,CaH2
0.6541000000000001,Ca-H,2,CaH2
3.0275,Ca-H,2,CaH2
0.6536000000000004,Ca-H,2,CaH2
4.6966,C-Ca-H-O,4,CaH2(CO2)2
4.6613,C-Ca-H-O,4,CaH2(CO2)2
5.6987,C-Ca-H-N-O-S,6,CaH20C4S4(NO6)2
4.6551,Br-C-Ca-H-O,5,CaH24C6(BrO3)2
3.5111,C-Ca-H-O,4,CaH2C2O5
3.5857,C-Ca-Cl-H-O,5,CaH2CClO3
5.239800000000001,C-Ca-H-O,4,CaH2CO4
7.6467,Ca-F-H,3,CaH2F4
0.0,Ca-H-Pd,3,CaH2Pd
0.0,Ca-H-N-O-S,5,CaH2S2N2O9
0.0,Ca-H,2,CaH3
0.0,Ca-H-Pd,3,CaH3Pd
5.6879,Ca-H-O-S,4,CaH4SO6
5.3533,Ca-H-O-S,4,CaH4SO6
4.1584,Ca-H-O-Se,4,CaH4Se2O7
3.8816,Ca-H-O-Se,4,CaH4SeO6
3.766,Ca-H-O-S,4,CaH6(SO4)4
5.8984000000000005,Ca-H-O-S,4,CaH6(SO4)4
3.7229,C-Ca-H-O,4,CaH6C2O7
2.0139,Ca-H-O-Pt,4,CaH6PtO6
5.0874,Ca-Cl-H-O,4,CaH8(ClO2)2
5.1469000000000005,Ca-Cl-H-O,4,CaH8(ClO2)2
4.982,C-Ca-H-N-O,5,CaH8C2N4O5
4.1152,Br-Ca-H,3,CaHBr
3.8394,Ca-Cl-H,3,CaHCl
5.3295,Ca-Cl-H-O,4,CaHClO
4.674,Ca-F-H,3,CaHF
3.5271000000000003,Ca-H-I,3,CaHI
2.193,Ca-H-N,3,CaHN
0.3485000000000005,Ca-Hf-O-Pb,4,CaHf4(PbO3)4
0.0,Ca-Hf-N-O,4,CaHf8(N2O)4
0.2834000000000003,Ca-Hf-N-O,4,CaHf8(N2O)4
0.0319000000000002,Ca-Hf-N-O,4,CaHf8(N2O)4
0.0165999999999995,Ca-Hf-N-O,4,CaHf8(N2O)4
0.2686999999999999,Ca-Hf-N-O,4,CaHf8(N2O)4
0.4783999999999997,Ca-Hf-N-O,4,CaHf8(N2O)4
0.0,Be-Ca-Hf,3,CaHfBe
0.0,Ca-Hf-Mg,3,CaHfMg14
0.0,Ca-Hf-Mg-O,4,CaHfMg14O16
0.0,Ca-Hf-Mg,3,CaHfMg6
0.0,Ca-Hf-Mg-O,4,CaHfMg6O8
0.5432999999999995,Ca-Hf-N,3,CaHfN2
0.5366999999999997,Ca-Hf-In-Nb-O,5,CaHfNbInO6
3.6612,Ca-Hf-O,3,CaHfO3
4.4855,Ca-Hf-O,3,CaHfO3
1.5238,Ca-Hf-S,3,CaHfS3
2.3192000000000004,Ca-Hf-O-Sn-Ti,5,CaHfTiSnO6
5.5318000000000005,Ca-F-Hf-Tl,4,CaHfTlF7
0.0,Ca-Hf-Zn,3,CaHfZn
0.0,Ca-Hg,2,CaHg
0.0,Ca-Hg,2,CaHg2
0.0,Ca-Hg,2,CaHg3
2.125,Ca-Hg-O,3,CaHgO2
0.0,Ca-Hg-O,3,CaHgO3
0.0,Ca-Hg-Pb,3,CaHgPb
0.0,Bi-Ca-Ho-O,4,CaHo(BiO3)2
0.0,Ca-Co-Ho-O,4,CaHo(CoO3)2
0.0,Ca-Fe-Ho-O,4,CaHo(FeO3)2
1.0214999999999996,Ca-Ho-Mo-O,4,CaHo(MoO3)2
0.0,Ca-Ho-Ni-O,4,CaHo(NiO3)2
0.0,Ca-Ho-O-Sb,4,CaHo(SbO3)2
0.0,Ca-Ho-O-Sn,4,CaHo(SnO3)2
2.04,Ca-Ho-O-W,4,CaHo(WO3)2
0.0,Ca-Cu-Ho-O-Si,5,CaHo2Cu(SiO3)4
0.0,Ca-Ho,2,CaHo3
0.0,Ca-Cd-Ho,3,CaHoCd2
0.0,Ca-Cr-Ho-O,4,CaHoCr2O6
0.0,Ca-Hg-Ho,3,CaHoHg2
0.0,Ca-Ho-Mn-O,4,CaHoMn2O6
0.0,Ca-Ho-O,3,CaHoO3
0.0,Ca-Ho-Pd,3,CaHoPd2
0.0,Ca-Ho-Rh,3,CaHoRh2
0.0,Ca-Ho-O-Ti,4,CaHoTi2O6
1.0743,Ca-Ho-O-V,4,CaHoV2O6
0.0,Ca-Ho-Zn,3,CaHoZn2
0.0,Ca-I,2,CaI
3.8971,Ca-I,2,CaI2
0.0,Ca-In,2,CaIn
0.0,Ca-In,2,CaIn2
0.0,Au-Ca-In,3,CaIn2Au
0.0,Ca-Cu-In,3,CaIn2Cu
0.0,Ca-In-Ni,3,CaIn2Ni
2.0207999999999995,Ca-In-O,3,CaIn2O4
0.0,Ca-In-Pd,3,CaIn2Pd
0.0,Ca-In-Pt,3,CaIn2Pt
0.0,Ca-Ge-In-O,4,CaIn4(Ge2O7)2
0.0,Ca-In-Ir,3,CaIn4Ir
0.0,Ca-In-Ni,3,CaIn4Ni
0.0,Ca-In-Pd,3,CaIn4Pd
0.0,Ca-In-Rh,3,CaIn4Rh
0.0,Ag-Ca-In,3,CaInAg2
0.0,Au-Ca-In,3,CaInAu
0.0,Au-Ca-In,3,CaInAu2
2.8725,Br-Ca-In,3,CaInBr3
0.0,Ca-Cu-In,3,CaInCu4
0.0,Ca-Hg-In,3,CaInHg2
2.7835,Ca-I-In,3,CaInI3
0.0,Ca-In-O,3,CaInO3
0.0,Ca-In-Pd,3,CaInPd
0.0,Ca-In-Pd,3,CaInPd2
0.0,Ca-In-Pt,3,CaInPt
0.0,Ca-In-Rh,3,CaInRh
0.0,Ca-Ir,2,CaIr2
0.0,Ca-Ir-N,3,CaIrN2
0.0,Ca-Ir-O,3,CaIrO3
0.0,Ca-La,2,CaLa
0.0,Ca-Co-La-O,4,CaLa(CoO3)2
0.0,Ca-Fe-La-O,4,CaLa(FeO3)2
0.0,Ca-Ge-Ir-La,4,CaLa(GeIr)4
4.3132,B-Ca-La-O,4,CaLa2B10O19
3.936399999999999,Be-Ca-La-O,4,CaLa2BeO5
0.0,Bi-Ca-La-O,4,CaLa2BiO6
0.9810999999999996,Ca-Co-La-O-Pb-Sb,6,CaLa2Co2Sb2(PbO6)2
1.8872,Ca-Co-La-O-Pb-Sb,6,CaLa2Co2Sb2(PbO6)2
1.9117000000000008,Ca-Co-La-O-Pb-Sb,6,CaLa2Co2Sb2(PbO6)2
1.5866999999999996,Ca-Co-La-O-Pb-Sb,6,CaLa2Co2Sb2(PbO6)2
0.3052000000000001,Ca-Co-La-O-Pb-Sb,6,CaLa2Co2Sb2(PbO6)2
1.7428999999999997,Ca-Co-La-O-Pb-Sb,6,CaLa2Co2Sb2(PbO6)2
1.711799999999999,Ca-Co-La-O-Pb-Sb,6,CaLa2Co2Sb2(PbO6)2
0.1054000000000003,Ca-Co-La-O,4,CaLa2CoO6
0.0,Ca-Cr-La-O,4,CaLa2CrO6
0.0,Ca-Cu-La-O,4,CaLa2Cu2O7
2.0811,Ca-Fe-La-O-Te,5,CaLa2Fe2(TeO6)2
1.8552,Ca-Fe-La-O-Te,5,CaLa2Fe2(TeO6)2
1.7183000000000002,Ca-Fe-La-O,4,CaLa2FeO6
0.0,Ca-Fe-La-Mn-O,5,CaLa2Mn2(FeO6)2
0.0,Ca-La-Mn-O,4,CaLa2Mn3O9
1.4188,Ca-La-Mo-O,4,CaLa2MoO6
0.0,Ca-La-O-Sb,4,CaLa2SbO6
3.8928,Ca-La-O-Sn,4,CaLa2SnO6
0.5789,Ca-Cr-La-O-Ti,5,CaLa2Ti2Cr2O12
0.0,Ca-La-Mn-O-Ti,5,CaLa2Ti2Mn2O12
3.1705000000000005,Ca-La-O-Ti,4,CaLa2TiO6
1.7858999999999998,Ca-La-O-V,4,CaLa2VO6
2.0397,Ca-La-O-W,4,CaLa2WO6
2.2496,Ca-La-O-Zr,4,CaLa2ZrO6
0.4409,Ca-Co-La-O,4,CaLa3(CoO4)2
0.0167999999999999,Ca-Co-La-O,4,CaLa3(CoO4)2
0.0,Ca-Fe-La-O,4,CaLa3(FeO3)4
0.0,Ba-Eu-O-Ru,4,Ba2EuRuO6
0.0,Ba-Eu-O-Sb,4,Ba2EuSbO6
0.0,Ba-Eu-O-Ta,4,Ba2EuTaO6
0.0,Ba-Eu-O-V,4,Ba2EuVO6
3.653,Ba-Cl-F-Fe,4,Ba2Fe2ClF7
0.8776000000000002,Ba-Fe-O,3,Ba2Fe2O5
0.0,Ba-Fe-O,3,Ba2Fe2O5
1.8181000000000005,Ba-F-Fe-O-S,5,Ba2Fe2S2OF2
1.81,Ba-F-Fe-O-Se,5,Ba2Fe2Se2OF2
0.0,Ba-Fe-O,3,Ba2Fe3O7
0.0,Ba-Fe-O,3,Ba2Fe3O8
2.1492,Ba-Fe-H-O-P,5,Ba2Fe3P6HO22
0.0,As-Ba-Fe-P,4,Ba2Fe4AsP3
0.0,Ba-Bi-Fe-O,4,Ba2Fe4Bi2O11
1.4128000000000007,Ba-Bi-Fe-O-Pb,5,Ba2Fe5BiPb2O13
0.6247999999999996,Ba-Fe-Ni-O-Sb,5,Ba2Fe8Ni3(SbO11)2
1.4511000000000005,Ba-Br-Fe-O,4,Ba2FeBrO3
2.1118,Ba-Cl-Co-F-Fe,5,Ba2FeCoClF7
0.8640999999999996,Ba-Fe-Mo-O,4,Ba2FeMoO6
0.7715000000000001,Ba-Fe-Mo-O,4,Ba2FeMoO6
0.9037000000000002,Ba-Fe-Mo-O,4,Ba2FeMoO6
0.0,Ba-Fe-Mo-O,4,Ba2FeMoO6
0.1957999999999997,Ba-Fe-N,3,Ba2FeN2
0.0,Ba-Fe-O,3,Ba2FeO4
2.4765,Ba-Fe-H-O-P,5,Ba2FeP4HO14
0.0,Ba-Fe-O-Re,4,Ba2FeReO6
2.5062,Ba-Fe-O-W,4,Ba2FeWO6
0.0,Ba-Fe-O-W,4,Ba2FeWO6
2.987,Ba-Bi-Ga-O,4,Ba2Ga11BiO20
0.0,Ba-Ga-O,3,Ba2Ga2O5
0.0,Ag-Ba-Ga,3,Ba2Ga7Ag
0.0,Ba-Ga-Ge-N,4,Ba2GaGeN
5.0374,Ba-Ga-H-O-P,5,Ba2GaP4HO14
0.0,Ba-Cu-Gd-O,4,Ba2Gd(CuO2)4
0.0,Ba-Co-Gd-O,4,Ba2Gd2Co4O11
0.0,B-Ba-Cl-Gd-O,5,Ba2GdB2ClO6
1.6632000000000002,Ba-Bi-Gd-O,4,Ba2GdBiO6
0.0,Ba-Co-Cu-Gd-O,5,Ba2GdCoCu2O7
0.0,Ba-Cu-Gd-Hg-O,5,Ba2GdCu2(HgO4)2
0.0,Ba-Cu-Gd-Hg-O,5,Ba2GdCu2HgO7
0.0,Ba-Cu-Gd-O,4,Ba2GdCu3O7
0.0,Ba-Cu-Gd-O-S,5,Ba2GdCu3SO6
0.0,Ba-Cu-Gd-Mg-O,5,Ba2GdMgCu3O7
1.5189,Ba-Gd-Mg-Mo-O,5,Ba2GdMgMoO6
1.3108999999999995,Ba-Gd-Mg-O-Sb,5,Ba2GdMgSbO6
0.2654999999999994,Ba-Gd-Mg-O-Sb,5,Ba2GdMgSbO6
0.0,Ba-Gd-Mo-O,4,Ba2GdMoO6
0.9083,Ba-Gd-Mo-O,4,Ba2GdMoO6
2.6644,Ba-Gd-Nb-O,4,Ba2GdNbO6
0.0,Ba-Gd-Nb-O,4,Ba2GdNbO6
3.1597,Ba-Gd-O-Pa,4,Ba2GdPaO6
0.0,Ba-Gd-O-Re,4,Ba2GdReO6
0.1467,Ba-Gd-O-Ru,4,Ba2GdRuO6
0.0,Ba-Gd-O-Sb,4,Ba2GdSbO6
3.4839,Ba-Gd-O-Sb,4,Ba2GdSbO6
3.2148000000000003,Ba-Gd-O-Ta,4,Ba2GdTaO6
3.3075999999999994,Ba-Gd-O-Ta,4,Ba2GdTaO6
0.8429000000000002,Ba-Gd-O-U,4,Ba2GdUO6
0.0,Ba-Gd-O-W,4,Ba2GdWO6
0.0,Ba-Ge,2,Ba2Ge
0.8477000000000001,Ba-Ge-Se-Te,4,Ba2Ge(TeSe)2
0.0,Ba-Ge,2,Ba2Ge3
0.0,Ba-Ge-Pd,3,Ba2Ge4Pd5
0.2012999999999998,Ba-Ge-Ir,3,Ba2Ge5Ir4
4.0976,Ba-Ge-O,3,Ba2GeO4
1.4121,Ba-Ge-Se,3,Ba2GeSe4
3.3183,Ba-C-H-O,4,Ba2H2C4O9
2.2391,Ba-H-I,3,Ba2H3I
1.7035,Ba-H-Pd,3,Ba2H4Pd
1.9655,Ba-H-Os,3,Ba2H6Os
1.7589,Ba-H-Pt,3,Ba2H6Pt
1.8699,Ba-H-Ru,3,Ba2H6Ru
4.0367,Ba-Hf-O,3,Ba2Hf7O16
3.4370000000000003,Ba-Hf-O,3,Ba2HfO4
0.8648000000000002,Ba-Hf-S,3,Ba2HfS4
0.1878999999999999,Ba-Hf-O-U,4,Ba2HfUO6
0.0,Ba-Hg,2,Ba2Hg
0.0,Ba-Hg-O-Pd,4,Ba2Hg3(PdO2)7
0.0,Ba-Hg-Pb,3,Ba2HgPb
0.0,Ba-Cu-Ho-O,4,Ba2Ho(CuO2)3
0.0,Ba-Cu-Ho-O,4,Ba2Ho(CuO2)4
0.0,Al-Ba-Ho-N-O-Si,6,Ba2Ho2Al3Si5N11O3
0.0,Ba-Co-Ho-O,4,Ba2Ho2Co4O11
0.0,Ba-Co-Fe-Ho-O,5,Ba2Ho2Fe(CoO4)3
4.0845,B-Ba-Cl-Ho-O,5,Ba2HoB2ClO6
0.0,Ba-Co-Cu-Ho-O,5,Ba2HoCoCu2O7
0.0,Ba-Cu-Ho-O,4,Ba2HoCu3O7
0.0,Ba-Cu-Ho-Mg-O,5,Ba2HoMg(CuO2)4
0.0,Ba-Cu-Ho-Mg-O,5,Ba2HoMgCu3O7
0.0,Ba-Ho-Mg-Nb-O,5,Ba2HoMgNbO6
0.0,Ba-Ho-Mg-O-Ru,5,Ba2HoMgRuO6
0.5437000000000003,Ba-Ho-Mg-O-Sb,5,Ba2HoMgSbO6
1.4033000000000002,Ba-Ho-Mg-O-Sb,5,Ba2HoMgSbO6
2.5118,Ba-Ho-Mg-O-Sb,5,Ba2HoMgSbO6
0.0,Ba-Ho-Mo-O,4,Ba2HoMoO6
2.8516,Ba-Ho-Nb-O,4,Ba2HoNbO6
3.4556,Ba-Ho-O-Pa,4,Ba2HoPaO6
0.0,Ba-Ho-O-Re,4,Ba2HoReO6
0.076,Ba-Ho-O-Ru,4,Ba2HoRuO6
3.4155,Ba-Ho-O-Sb,4,Ba2HoSbO6
3.4479999999999995,Ba-Ho-O-Ta,4,Ba2HoTaO6
3.3782,Ba-Ho-O-Ta,4,Ba2HoTaO6
0.8731999999999998,Ba-Ho-O-U,4,Ba2HoUO6
3.0441,Ba-I-O,3,Ba2I2O
4.3552,Ba-Br-F-I,4,Ba2IBrF2
0.0,Ba-In-O,3,Ba2In2O5
0.4819999999999997,Ba-In-O,3,Ba2In2O5
0.919,Ba-In-O,3,Ba2In2O5
1.5654999999999997,Ba-In-O,3,Ba2In2O5
0.0,Au-Ba-In,3,Ba2In3Au
0.0,Ba-Bi-In-O,4,Ba2InBiO6
1.8237,Ba-Br-In-O,4,Ba2InBrO3
1.9145,Ba-Cl-In-O,4,Ba2InClO3
1.1107999999999998,Ba-Cu-In-O,4,Ba2InCuO4
1.4145,Ba-Ga-In-O,4,Ba2InGaO5
0.0,Ba-Hg-In,3,Ba2InHg
0.0,Ba-In-Ir-O,4,Ba2InIrO6
2.0466999999999995,Ba-F-In-O,4,Ba2InO3F
0.4224000000000005,Ba-In-O-Os,4,Ba2InOsO6
0.0,Ba-In-O-Re,4,Ba2InReO6
0.3628,Ba-In-O-Ru,4,Ba2InRuO6
0.5239999999999996,Ba-In-O-Sb,4,Ba2InSbO6
0.0,Ba-Ir-N,3,Ba2IrN3
0.0,Ba-Ir-O,3,Ba2IrO4
0.0,Ba-Cu-La-O,4,Ba2La(CuO2)3
0.0,Ba-Fe-La-O,4,Ba2La(FeO3)3
0.0,Ba-Cu-Fe-La-O,5,Ba2La2Fe2Cu2O11
2.2646,Ba-La-Mg-Mn-O-W,6,Ba2La2MgMn(WO6)2
2.3412,Ba-La-Mg-O-Ti,5,Ba2La2MgTi3O12
1.6864999999999997,Ba-La-Mg-O-W-Zn,6,Ba2La2MgZn(WO6)2
0.0872999999999999,Ba-La-Mn-O,4,Ba2La2Mn4O11
3.3024,Ba-La-Ni-O-W,5,Ba2La2Ni(WO6)2
0.4614000000000002,Ba-Cu-La-O-Ti,5,Ba2La2Ti2Cu2O11
0.0,Ba-Cu-La-O-Tl,5,Ba2La2TlCu2O9
2.7794,Ba-La-O-W-Zn,5,Ba2La2Zn(WO6)2
0.7635000000000005,Ba-Cu-La-Nd-O,5,Ba2La3Nd(CuO5)2
0.8681999999999999,Ba-Cu-La-O-Pt,5,Ba2La4CuPtO10
0.0,Ba-La-Mn-O-Sn,5,Ba2La4Mn5SnO18
2.3756000000000004,Ba-La-O-Ti,4,Ba2La4Ti5O18
1.4647000000000006,Ag-Ba-La-S,4,Ba2LaAg5S6
1.8278,Ba-Bi-La-O,4,Ba2LaBiO6
1.9852,Ba-Bi-La-O,4,Ba2LaBiO6
3.9314,Ba-C-F-La-O,5,Ba2LaC3O9F
0.0,Ba-Co-Cu-La-O,5,Ba2LaCoCu2O7
0.0,Ba-Cr-La-O,4,Ba2LaCrO6
0.0,Ba-Cu-Hg-La-O,5,Ba2LaCu2HgO7
0.0,Ba-Cu-La-O,4,Ba2LaCu3O7
0.0,Ba-Cu-La-O,4,Ba2LaCu3O8
0.0,Ba-Ir-La-O,4,Ba2LaIrO6
1.6906999999999996,Ba-Bi-La-Mg-O,5,Ba2LaMgBiO6
2.4519,Ba-Bi-La-Mg-O,5,Ba2LaMgBiO6
0.0,Ba-Cu-La-Mg-O,5,Ba2LaMgCu3O7
0.0,Ba-La-Mg-Nb-O,5,Ba2LaMgNbO6
2.818,Ba-La-Mg-O-Sb,5,Ba2LaMgSbO6
2.8635,Ba-La-Mg-O-Sb,5,Ba2LaMgSbO6
0.0,Ba-Cu-La-Mg-O-Ta,6,Ba2LaMgTa(CuO4)2
0.7027000000000001,Ba-Cu-La-Mg-O-Ta,6,Ba2LaMgTa(CuO4)2
0.0,Ba-La-Mn-O,4,Ba2LaMn2O7
0.9398,Ba-La-Mn-O,4,Ba2LaMn2O7
0.2363999999999997,Ba-Cu-La-Nb-O,5,Ba2LaNb(CuO4)2
2.9563,Ba-La-Nb-O,4,Ba2LaNbO6
3.0639,Ba-La-Nb-O,4,Ba2LaNbO6
3.3736,Ba-La-O-Pa,4,Ba2LaPaO6
0.0,Ba-La-O-Pu,4,Ba2LaPuO6
0.0,Ba-La-O-Re,4,Ba2LaReO6
0.2436999999999995,Ba-La-O-Ru,4,Ba2LaRuO6
0.2196000000000002,Ba-La-O-Ru,4,Ba2LaRuO6
3.8803,Ba-La-O-Sb,4,Ba2LaSbO6
3.8961,Ba-La-O-Sb,4,Ba2LaSbO6
3.8497,Ba-La-O-Sb,4,Ba2LaSbO6
0.0,Ba-Cu-La-O-Ta,5,Ba2LaTa(CuO4)2
3.6213,Ba-La-O-Ta,4,Ba2LaTaO6
3.6555,Ba-La-O-Ta,4,Ba2LaTaO6
3.6315,Ba-La-O-Ta,4,Ba2LaTaO6
0.0,Ba-Cu-La-O-Tl,5,Ba2LaTlCu2O7
0.8498000000000001,Ba-La-O-U,4,Ba2LaUO6
1.7140000000000004,Ba-La-O-V,4,Ba2LaVO6
0.0,Ba-La-O-W,4,Ba2LaWO6
4.951700000000001,B-Ba-Li-O,4,Ba2Li(BO2)5
0.5032000000000001,Ba-C-Li-O,4,Ba2Li(CO3)2
0.2656999999999998,Ba-C-Li-O,4,Ba2Li(CO3)2
0.0,Ba-Cu-Li-O,4,Ba2Li(CuO2)3
0.6631999999999998,Ba-Li-Ni-O,4,Ba2Li(NiO2)2
1.0726,Ba-Li-Ni-O,4,Ba2Li(NiO2)2
0.4912000000000001,Ba-Li-Ni-O,4,Ba2Li(NiO3)2
0.0,Ba-Li-Ni-O,4,Ba2Li(NiO3)2
0.4185999999999996,Ba-Li-Ni-O,4,Ba2Li(NiO3)2
2.2753999999999994,Ba-Li-N-Nb,4,Ba2Li3NbN4
2.2751,Ba-Li-N-Ta,4,Ba2Li3TaN4
0.0,Ba-Cu-Eu-Li-O,5,Ba2LiEu(CuO2)4
0.0,Ba-Fe-Li-N,4,Ba2LiFe2N3
0.0,Ba-Ho-Li-O-Ru,5,Ba2LiHoRuO6
2.075600000000001,Ba-I-Li-O,4,Ba2LiIO6
0.0,Ba-Cu-La-Li-O,5,Ba2LiLaCu3O7
0.0,Ba-Ir-La-Li-O,5,Ba2LiLaIrO6
0.0,Ba-Li-Mn-O-P,5,Ba2LiMn2(P2O7)2
0.6181000000000001,Ba-Li-Mn-O-P,5,Ba2LiMn2(P2O7)2
0.1679000000000003,Ba-Li-Mn-O-P,5,Ba2LiMn2(P2O7)2
0.0,Ba-Li-Mn-O,4,Ba2LiMn2O6
0.7942,Ba-Li-Mn-O,4,Ba2LiMn2O6
1.0269,Ba-Li-Mn-O,4,Ba2LiMn2O6
0.0,Ba-Li-O-Os,4,Ba2LiOsO6
1.7902,Ba-Li-N-Re,4,Ba2LiReN4
1.8198000000000003,Ba-Li-O-Re,4,Ba2LiReO6
0.0,Ba-Co-Cu-Li-O-Sm,6,Ba2LiSmCoCu2O7
0.0,Ba-Ir-Li-O-Tb,5,Ba2LiTbIrO6
3.3137000000000003,Ba-Li-O-Sn-Tb,5,Ba2LiTbSnO6
3.3960000000000004,Ba-Li-O-Sn-Tb,5,Ba2LiTbSnO6
3.1105,Ba-Li-O-Sn-Tb,5,Ba2LiTbSnO6
0.0,Ba-Li-O-Te,4,Ba2LiTeO6
0.0,Ba-Li-O-Ti,4,Ba2LiTi11O24
0.0,Ba-Cu-Li-O-Tm,5,Ba2LiTmCu3O7
0.0,Ba-Li-O-U,4,Ba2LiUO6
0.9260000000000002,Ba-Li-O-Si-V,5,Ba2LiV2(Si2O7)2
0.6856,Ba-Li-O-Si-V,5,Ba2LiV2(Si2O7)2
1.4775999999999998,Ba-Li-O-Si-V,5,Ba2LiV2(Si2O7)2
0.2716000000000003,Ba-Li-O-Si-V,5,Ba2LiV2(Si2O7)2
1.5163000000000002,Ba-Li-O-Si-V,5,Ba2LiV2(Si2O7)2
1.8934,Ba-Li-O-P-V,5,Ba2LiVP2O9
1.7834000000000003,Ba-Fe-Li-O-Y,5,Ba2LiY2(Fe2O5)2
1.0886999999999998,Ba-Fe-Li-O-Y,5,Ba2LiY2(Fe2O5)2
0.7321999999999997,Ba-Fe-Li-O-Y,5,Ba2LiY2(Fe2O5)2
1.4756999999999998,Ba-Fe-Li-O-Y,5,Ba2LiY2(Fe2O5)2
0.3786000000000005,Ba-Fe-Li-O-Y,5,Ba2LiY2(Fe2O5)2
0.0,Ba-Li-O-S-Zn,5,Ba2LiZn2(SO)2
0.0,Ba-Cu-Lu-O,4,Ba2Lu(CuO2)3
2.1046,B-Ba-Cl-Lu-O,5,Ba2LuB2ClO6
1.4518,Ba-Bi-Lu-O,4,Ba2LuBiO6
1.4061000000000003,Ba-Bi-Lu-O,4,Ba2LuBiO6
0.0,Ba-Cu-Lu-O,4,Ba2LuCu3O7
0.0,Ba-Ir-Lu-O,4,Ba2LuIrO6
2.1,Ba-Bi-Lu-Mg-O,5,Ba2LuMgBiO6
0.0,Ba-Lu-Mg-Nb-O,5,Ba2LuMgNbO6
0.0,Ba-Lu-Mg-O-Ru,5,Ba2LuMgRuO6
0.2706999999999997,Ba-Lu-Mg-O-Ru,5,Ba2LuMgRuO6
1.4614999999999996,Ba-Lu-Mg-O-Sb,5,Ba2LuMgSbO6
0.7199999999999998,Ba-Lu-Mg-O-Sb,5,Ba2LuMgSbO6
2.5078,Ba-Lu-Mg-O-Sb,5,Ba2LuMgSbO6
0.0,Ba-Lu-Mo-O,4,Ba2LuMoO6
2.8479,Ba-Lu-Nb-O,4,Ba2LuNbO6
0.0,Ba-Lu-O-Re,4,Ba2LuReO6
0.0556,Ba-Lu-O-Ru,4,Ba2LuRuO6
3.2383,Ba-Lu-O-Sb,4,Ba2LuSbO6
0.0,Ba-Lu-O-Sb,4,Ba2LuSbO6
3.4089,Ba-Lu-O-Ta,4,Ba2LuTaO6
2.0388,Ba-Lu-O-U,4,Ba2LuUO6
0.0,Ag-Ba-Mg-O,4,Ba2Mg(AgO2)2
4.9106000000000005,B-Ba-Mg-O,4,Ba2Mg(BO2)6
4.532399999999999,B-Ba-Mg-O,4,Ba2Mg(BO3)2
2.264,Ba-Bi-Mg-O,4,Ba2Mg(BiO3)2
0.2549999999999999,Ba-Bi-Mg-O,4,Ba2Mg(BiO3)2
2.3553,Ba-Bi-Mg-O,4,Ba2Mg(BiO3)2
2.2341,Ba-Bi-Mg-O,4,Ba2Mg(BiO3)2
0.7009999999999996,Ba-Bi-Mg-O,4,Ba2Mg(BiO3)2
0.5113000000000003,Ba-Co-Mg-O,4,Ba2Mg(CoO3)2
1.7720000000000002,Ba-Co-Mg-O,4,Ba2Mg(CoO3)2
0.5213000000000001,Ba-Co-Mg-O,4,Ba2Mg(CoO3)2
0.8877000000000002,Ba-Co-Mg-O,4,Ba2Mg(CoO3)2
0.5882999999999994,Ba-Cu-Mg-O,4,Ba2Mg(CuO2)2
0.4740999999999999,Ba-Fe-Mg-O,4,Ba2Mg(FeO2)4
0.0,Ba-Fe-Mg-O,4,Ba2Mg(FeO2)4
0.0,Ba-Ge-Ir-Mg,4,Ba2Mg(GeIr)4
1.4981,Ba-Mg-Mo-O,4,Ba2Mg(MoO4)2
0.5150000000000001,Ba-Mg-Ni-O,4,Ba2Mg(NiO3)2
0.0,Ba-Mg-Ni-O,4,Ba2Mg(NiO3)2
0.6219999999999999,Ba-Mg-Ni-O,4,Ba2Mg(NiO3)2
0.6782999999999997,Ba-Mg-S-Ti,4,Ba2Mg(TiS3)2
0.0,Ba-Mg-S-Ti,4,Ba2Mg(TiS3)2
0.1992000000000002,Ba-Mg-S-Ti,4,Ba2Mg(TiS3)2
0.0,Ba-Mg-S-V,4,Ba2Mg(VS3)2
0.0670999999999999,Ba-Mg-S-V,4,Ba2Mg(VS3)2
0.1149,Ba-Mg-S-V,4,Ba2Mg(VS3)2
1.7421,Ba-Mg-O-W,4,Ba2Mg(WO4)2
0.9581000000000004,Ba-Mg-O-W,4,Ba2Mg(WO4)2
0.2595000000000005,Ba-Mg-O-W,4,Ba2Mg(WO4)2
2.0450000000000004,Ba-Mg-O-W,4,Ba2Mg(WO4)2
0.0,Ba-Mg-Mn-O-Tl,5,Ba2Mg2Mn3Tl2O10
4.4494,Ba-F-Mg-Mn,4,Ba2Mg2MnF10
0.0,Ba-Mg-O-Ti-Tl,5,Ba2Mg2Ti3Tl2O10