eg,chemsys,nelements,formula
3.2912,Ba-Ca-O-W,4,Ba2CaWO6
3.2693,Ba-Ca-O-W,4,Ba2CaWO6
0.54,Ba-Ca-Co-O-Y,5,Ba2CaY(Co4O7)2
0.0,Ba-Ca-Co-O-Y,5,Ba2CaY(Co4O7)2
1.2261999999999995,Ba-Ca-Fe-O-Y,5,Ba2CaY2(Fe2O5)2
0.0090000000000003,Ba-Ca-Fe-O-Y,5,Ba2CaY2(Fe2O5)2
0.0,Ba-Cd,2,Ba2Cd
4.3316,B-Ba-Cd-O,4,Ba2Cd(BO2)6
2.8851000000000004,B-Ba-Cd-O,4,Ba2Cd(BO3)2
0.0,As-Ba-Cd,3,Ba2Cd2As3
0.0,Ba-Cd-Sb,3,Ba2Cd2Sb3
0.3902999999999998,As-Ba-Cd,3,Ba2CdAs2
2.9629000000000003,Ba-Cd-Ge-O,4,Ba2CdGe2O7
0.0,Ba-Cd-Hg,3,Ba2CdHg
0.0,Ba-Cd-In,3,Ba2CdIn
2.5376000000000003,Ba-Cd-Mo-O,4,Ba2CdMoO6
0.4790999999999998,Ba-Cd-N,3,Ba2CdN2
0.0,Ba-Cd-O-Os,4,Ba2CdOsO6
0.0,Ba-Cd-O-P,4,Ba2CdP3O11
0.0,Ba-Cd-Pb,3,Ba2CdPb
0.0,Ba-Cd-O-Re,4,Ba2CdReO6
0.0,Ba-Cd-Sn,3,Ba2CdSn
0.0,Ba-Ce-O,3,Ba2Ce2O5
0.0,Ba-Bi-Ce-O,4,Ba2CeBiO6
0.0766,Ba-C-Ce-F-O,5,Ba2CeC3O9F
0.0,Ba-Ce-Cr-O,4,Ba2CeCrO6
2.2198,Ba-Ce-Hf-O,4,Ba2CeHfO6
0.0,Ba-Ce-Mg-Nb-O,5,Ba2CeMgNbO6
0.0,Ba-Ce-Nb-O,4,Ba2CeNbO6
0.0161999999999995,Ba-Ce-O-Pa,4,Ba2CePaO6
2.3054,Ba-Ce-O-Pb,4,Ba2CePbO6
0.0,Ba-Ce-O-Pr,4,Ba2CePrO6
1.4204,Ba-Ce-O-Pt,4,Ba2CePtO6
0.2191999999999998,Ba-Ce-O-Pu,4,Ba2CePuO6
2.1444,Ba-Ce-O-Sn,4,Ba2CeSnO6
0.0,Ba-Ce-O-Ta,4,Ba2CeTaO6
0.0,Ba-Ce-O-V,4,Ba2CeVO6
0.0,Ba-Ce-O-W,4,Ba2CeWO6
2.3379,Ba-Ce-O-Zr,4,Ba2CeZrO6
2.5683,Ba-Ce-O-Zr,4,Ba2CeZrO6
2.2933,Ba-Ce-O-Zr,4,Ba2CeZrO6
5.7361,Ba-Cl-F,3,Ba2ClF3
2.4195,Ba-Cl-Co-F,4,Ba2Co2ClF7
0.0,Ba-Co-O,3,Ba2Co2O5
0.0,Ba-Co-O,3,Ba2Co3O7
0.0,Ba-Co-O,3,Ba2Co3O8
0.0,Ba-Br-Co-O,4,Ba2Co4BrO7
0.0,Ba-Cl-Co-O,4,Ba2Co4ClO7
0.0,Ba-Co-O,3,Ba2Co9O14
0.0,Ag-Ba-Co-O-Se,5,Ba2CoAg2(SeO)2
0.0,Ba-Co-Cu-O-S,5,Ba2CoCu2(SO)2
0.0,Ba-Co-F,3,Ba2CoF6
0.0,Ba-Co-Mo-O,4,Ba2CoMoO6
1.274,Ba-Co-Mo-O,4,Ba2CoMoO6
0.0,Ba-Co-N,3,Ba2CoN2
0.0,Ba-Co-Ni-S,4,Ba2CoNiS4
0.3179,Ba-Co-O,3,Ba2CoO4
0.3016000000000001,Ba-Co-O,3,Ba2CoO4
0.0,Ba-Co-O-Ru,4,Ba2CoRuO6
2.6655999999999995,Ba-Co-O-Si,4,Ba2CoSi2O7
1.8427,Ba-Co-O-W,4,Ba2CoWO6
0.0,Ba-Co-O-W,4,Ba2CoWO6
0.0,Ba-Cr-O,3,Ba2Cr3O7
0.0,Ba-Cr-O,3,Ba2Cr3O8
0.0026000000000001,Ba-Cr-O,3,Ba2Cr7O14
0.0392999999999998,Ba-Bi-Cr-O,4,Ba2CrBiO6
2.4321,Ba-Cr-F,3,Ba2CrF6
0.0,Ba-Cr-Mo-O,4,Ba2CrMoO6
0.0,Ba-Cr-N,3,Ba2CrN2
0.0,Ba-Cr-N,3,Ba2CrN3
0.5412000000000003,Ba-Cr-O,3,Ba2CrO4
1.8319,Ba-Cr-O,3,Ba2CrO4
0.0,Ba-Cr-O-Sn,4,Ba2CrSnO6
0.0474000000000001,Ba-C-Cu-O,4,Ba2Cu(C3O8)2
0.0,Ba-Cu-O-P,4,Ba2Cu(PO4)2
0.0,Ba-Br-Cu-S,4,Ba2Cu(SBr)2
0.0,Ba-Cl-Cu-S,4,Ba2Cu(SCl)2
0.0,Ba-Cu-O-S,4,Ba2Cu(SO)2
0.0,Ba-Cu-Hg-O,4,Ba2Cu2HgO6
0.0,Ba-Cu-O,3,Ba2Cu2O5
0.0,Ba-Br-Cu-O,4,Ba2Cu3(BrO2)2
0.0,Ba-Cl-Cu-O,4,Ba2Cu3(ClO2)2
0.0,Ba-Br-Cl-Cu-O,5,Ba2Cu3BrClO4
0.0,Ba-Cu-P,3,Ba2Cu3P4
0.8773999999999997,Ag-Ba-Cu-S-Sn,5,Ba2CuAg3(SnS4)2
2.3073,Ba-Br-Cu-O,4,Ba2CuBrO2
0.0,Ba-C-Cu-N-O,5,Ba2CuC(NO)2
2.3029,Ba-Cl-Cu-O,4,Ba2CuClO2
0.6278,Ba-Cu-F,3,Ba2CuF6
0.0,Ba-Cu-F,3,Ba2CuF6
0.1962999999999999,Ba-Cu-Ge-O,4,Ba2CuGe2O7
0.0,Ba-Cu-H,3,Ba2CuH6
0.0,Ba-Cu-Hg-O,4,Ba2CuHgO4
0.0,Ba-Cu-N,3,Ba2CuN2
0.0,Ba-Cu-O,3,Ba2CuO3
0.4877000000000002,Ba-Cu-O,3,Ba2CuO4
0.0,Ba-Cu-O,3,Ba2CuO6
0.0,Ba-Cu-O-Os,4,Ba2CuOsO6
0.0,Ba-Cu-O-P,4,Ba2CuP2O9
0.6408,Ba-Cu-O-S,4,Ba2CuSO2
0.0,Ba-Cu-F-Se,4,Ba2CuSe2F
0.4947000000000003,Ba-Cu-O-Se,4,Ba2CuSeO2
0.1831,Ba-Cu-O-Si,4,Ba2CuSi2O7
0.0795999999999996,Ba-Cu-O-Si,4,Ba2CuSi2O7
0.0,Ba-Cu-F-Te,4,Ba2CuTe2F
0.3494999999999999,Ba-Cu-O-Te,4,Ba2CuTeO2
0.0,Ba-Cu-O-Te,4,Ba2CuTeO6
0.0,Ba-Cu-O-W,4,Ba2CuWO6
0.0,Ba-Cu-Dy-O,4,Ba2Dy(CuO2)4
0.0,Ba-Co-Dy-O,4,Ba2Dy2Co4O11
1.735,Ba-Bi-Dy-O,4,Ba2DyBiO6
0.0,Ba-Co-Cu-Dy-O,5,Ba2DyCoCu2O7
0.0,Ba-Cu-Dy-Hg-O,5,Ba2DyCu2HgO7
0.0,Ba-Cu-Dy-O,4,Ba2DyCu3O7
0.0,Ba-Cu-Dy-Mg-O,5,Ba2DyMg(CuO2)4
0.0,Ba-Dy-Mg-Nb-O,5,Ba2DyMgNbO6
0.4878,Ba-Dy-Mg-O-Sb,5,Ba2DyMgSbO6
2.4899,Ba-Dy-Mg-O-Sb,5,Ba2DyMgSbO6
1.4066999999999998,Ba-Dy-Mg-O-Sb,5,Ba2DyMgSbO6
0.0,Ba-Dy-Mo-O,4,Ba2DyMoO6
2.8514,Ba-Dy-Nb-O,4,Ba2DyNbO6
3.4628,Ba-Dy-O-Pa,4,Ba2DyPaO6
0.0,Ba-Dy-O-Re,4,Ba2DyReO6
3.4688,Ba-Dy-O-Sb,4,Ba2DySbO6
3.3837,Ba-Dy-O-Ta,4,Ba2DyTaO6
0.8682999999999996,Ba-Dy-O-U,4,Ba2DyUO6
0.0,Ba-Dy-O-W,4,Ba2DyWO6
0.0,Ba-Cu-Er-O,4,Ba2Er(CuO2)4
1.392,Ba-Er-O-Zn,4,Ba2Er2Zn8O13
0.0,Ba-Co-Cu-Er-O,5,Ba2ErCoCu2O7
0.0,Ba-Cu-Er-O,4,Ba2ErCu3O7
0.0,Ba-Cu-Er-Ni-O,5,Ba2ErCuNi2O7
0.0,Ba-Cu-Er-Mg-O,5,Ba2ErMg(CuO2)4
0.0,Ba-Er-Mg-Nb-O,5,Ba2ErMgNbO6
0.0,Ba-Er-Mg-O-Ru,5,Ba2ErMgRuO6
0.5784000000000002,Ba-Er-Mg-O-Sb,5,Ba2ErMgSbO6
2.478,Ba-Er-Mg-O-Sb,5,Ba2ErMgSbO6
1.4117000000000002,Ba-Er-Mg-O-Sb,5,Ba2ErMgSbO6
0.0,Ba-Er-Mo-O,4,Ba2ErMoO6
2.8542,Ba-Er-Nb-O,4,Ba2ErNbO6
3.4587,Ba-Er-O-Pa,4,Ba2ErPaO6
0.0,Ba-Er-O-Re,4,Ba2ErReO6
0.0716000000000001,Ba-Er-O-Ru,4,Ba2ErRuO6
3.3776,Ba-Er-O-Sb,4,Ba2ErSbO6
3.3934,Ba-Er-O-Ta,4,Ba2ErTaO6
0.8790000000000004,Ba-Er-O-U,4,Ba2ErUO6
0.0,Ba-Cu-Er-O-Zn,5,Ba2ErZn2CuO7
0.0,Ba-Cu-Eu-O,4,Ba2Eu(CuO2)4
0.0,Ba-Cu-Eu-O-Ti,5,Ba2Eu2Ti2Cu2O11
0.0,Ba-Cu-Eu-Mn-O,5,Ba2Eu3Mn2(CuO6)2
0.0,Ba-Eu-Si,3,Ba2Eu3Si7
0.0,Ba-Bi-Eu-O,4,Ba2EuBiO6
0.0,Ba-Co-Cu-Eu-O,5,Ba2EuCoCu2O7
0.0,Ba-Cr-Eu-O,4,Ba2EuCrO6
0.0,Ba-Cu-Eu-Hg-O,5,Ba2EuCu2HgO7
0.0,Ba-Cu-Eu-O,4,Ba2EuCu3O7
0.0,Ba-Cu-Eu-Mg-O,5,Ba2EuMg(CuO2)4
0.0,Ba-Cu-Eu-Mg-O,5,Ba2EuMgCu3O7
0.1968999999999994,Ba-Eu-Mg-Nb-O,5,Ba2EuMgNbO6
0.0,Ba-Eu-Mg-O-Sb,5,Ba2EuMgSbO6
0.0479000000000002,Ba-Eu-Mo-O,4,Ba2EuMoO6
0.0,Ba-Eu-Nb-O,4,Ba2EuNbO6
0.0,Ba-Eu-O-Re,4,Ba2EuReO6
0.0,Ba-Mn-Nd-O-Sr,5,BaSrNdMnO6
2.869800000000001,Ba-Nb-Nd-O-Sr,5,BaSrNdNbO6
3.0703,Ba-Nb-Nd-O-Sr,5,BaSrNdNbO6
3.5072,Ba-Nd-O-Sb-Sr,5,BaSrNdSbO6
3.6367,Ba-Nd-O-Sb-Sr,5,BaSrNdSbO6
0.0,Ba-Cu-Nd-O-Sr-Tl,6,BaSrNdTlCu2O7
1.6403000000000003,Ba-Nd-O-Sr-V,5,BaSrNdVO6
2.0977,Ba-Nd-O-Sr-W,5,BaSrNdWO6
0.0,Ba-Nd-O-Sr-W,5,BaSrNdWO6
0.0,Ba-Bi-Ni-O-Sr,5,BaSrNiBiO6
3.3716000000000004,Ba-Ni-O-Sr-W,5,BaSrNiWO6
2.5672,Ba-O-Sr,3,BaSrO2
2.2539,Ba-O-Sr,3,BaSrO2
0.0,Ba-F-O-Pd-Sr,5,BaSrPd(OF)2
1.4644,Ba-F-Pd-Sr,4,BaSrPdF6
2.0229,Ba-Bi-O-Pr-Sr,5,BaSrPrBiO6
0.1057999999999999,Ba-Co-O-Pr-Sr,5,BaSrPrCoO6
0.0,Ba-Co-O-Pr-Sr,5,BaSrPrCoO6
0.0,Ba-Cu-O-Pr-Sr,5,BaSrPrCu3O7
0.0,Ba-Hf-O-Pr-Sr,5,BaSrPrHfO6
3.0167,Ba-Nb-O-Pr-Sr,5,BaSrPrNbO6
2.8679,Ba-Nb-O-Pr-Sr,5,BaSrPrNbO6
0.0,Ba-Ni-O-Pr-Sr,5,BaSrPrNiO6
3.6275,Ba-O-Pr-Sb-Sr,5,BaSrPrSbO6
3.4907,Ba-O-Pr-Sb-Sr,5,BaSrPrSbO6
0.0,Ba-O-Pr-Sn-Sr,5,BaSrPrSnO6
0.0,Ba-O-Pr-Sr-Ti,5,BaSrPrTiO6
1.6564,Ba-O-Pr-Sr-V,5,BaSrPrVO6
1.8192,Ba-O-Pr-Sr-V,5,BaSrPrVO6
2.1063,Ba-O-Pr-Sr-W,5,BaSrPrWO6
0.0,Ba-O-Pr-Sr-W,5,BaSrPrWO6
0.0,Ba-O-Pr-Sr-Zr,5,BaSrPrZrO6
0.4914,Ba-Si-Sr,3,BaSrSi
0.0,Ba-Si-Sr,3,BaSrSi4
3.5329000000000006,Ba-N-O-Si-Sr,5,BaSrSi4(NO)4
0.0,Ba-Cu-O-Sm-Sr,5,BaSrSm(CuO2)3
3.5735,Ba-O-Sm-Sr,4,BaSrSm4O8
1.9687,Ba-Bi-O-Sm-Sr,5,BaSrSmBiO6
0.0,Ba-Cr-O-Sm-Sr,5,BaSrSmCrO6
0.0,Ba-Cu-O-Sm-Sr,5,BaSrSmCu3O7
0.1184000000000002,Ba-Fe-O-Sm-Sr,5,BaSrSmFeO6
0.0,Ba-Mn-O-Sm-Sr,5,BaSrSmMnO6
2.8688,Ba-Nb-O-Sm-Sr,5,BaSrSmNbO6
3.6073,Ba-O-Sb-Sm-Sr,5,BaSrSmSbO6
3.5020999999999995,Ba-O-Sb-Sm-Sr,5,BaSrSmSbO6
0.0,Ba-O-Se-Sm-Sr,5,BaSrSmSeO6
1.6407000000000005,Ba-O-Sm-Sr-V,5,BaSrSmVO6
0.0,Ba-O-Sm-Sr-W,5,BaSrSmWO6
2.0034,Ba-O-Sm-Sr-W,5,BaSrSmWO6
0.0028000000000001,Ba-Sn-Sr,3,BaSrSn
2.1929,Ba-O-Sr-Ta,4,BaSrTa2O7
1.9042,Ba-Bi-O-Sr-Tb,5,BaSrTbBiO6
0.0,Ba-Ce-O-Sr-Tb,5,BaSrTbCeO6
0.0,Ba-Cr-O-Sr-Tb,5,BaSrTbCrO6
0.0,Ba-Hf-O-Sr-Tb,5,BaSrTbHfO6
2.867,Ba-Nb-O-Sr-Tb,5,BaSrTbNbO6
3.501,Ba-O-Sb-Sr-Tb,5,BaSrTbSbO6
3.5885,Ba-O-Sb-Sr-Tb,5,BaSrTbSbO6
0.0,Ba-O-Se-Sr-Tb,5,BaSrTbSeO6
0.0,Ba-O-Sn-Sr-Tb,5,BaSrTbSnO6
0.0,Ba-O-Sr-Tb-Ti,5,BaSrTbTiO6
1.6178,Ba-O-Sr-Tb-V,5,BaSrTbVO6
0.0,Ba-O-Sr-Tb-W,5,BaSrTbWO6
2.038,Ba-O-Sr-Tb-W,5,BaSrTbWO6
0.0,Ba-O-Sr-Tb-Zr,5,BaSrTbZrO6
1.7175000000000002,Ba-O-Sr-Ti,4,BaSrTi2O6
0.0,Ba-O-Sr-Ti,4,BaSrTi4O12
0.0,Ba-Bi-O-Sr-Ti,5,BaSrTiBiO6
0.0,Ba-Sr-Tl,3,BaSrTl2
3.7798,Ba-O-Sr-Tm,4,BaSrTm4O8
0.1493999999999999,Ba-O-Sr-V,4,BaSrV4O12
0.9855999999999998,Ba-Bi-O-Sr-V,5,BaSrVBiO6
0.0,Ba-Cu-O-Sr-Y,5,BaSrY(CuO2)4
3.7193,Ba-O-Sr-Y,4,BaSrY4O8
1.9478,Ba-Bi-O-Sr-Y,5,BaSrYBiO6
0.0,Ba-Cr-O-Sr-Y,5,BaSrYCrO6
0.0,Ba-Cu-O-Pb-Sr-Y,6,BaSrYCu3PbO7
3.0516000000000005,Ba-Nb-O-Sr-Y,5,BaSrYNbO6
2.8734,Ba-Nb-O-Sr-Y,5,BaSrYNbO6
3.5348,Ba-O-Sb-Sr-Y,5,BaSrYSbO6
0.0,Ba-Cu-O-Sr-Tl-Y,6,BaSrYTlCu2O7
1.6099000000000006,Ba-O-Sr-V-Y,5,BaSrYVO6
0.0,Ba-O-Sr-W-Y,5,BaSrYWO6
2.0381,Ba-O-Sr-W-Y,5,BaSrYWO6
3.3966000000000003,Ba-O-Sr-W-Zn,5,BaSrZnWO6
3.123,Ba-O-Sr-Zr,4,BaSrZr2O6
3.1698000000000004,Ba-O-Sr-Zr,4,BaSrZr2O6
0.0,Ba-O-Sr-Zr,4,BaSrZr4O12
0.0,Ba-Nb-O-Sr-Zr,5,BaSrZrNbO6
3.9199,Ba-O-Sn-Sr-Zr,5,BaSrZrSnO6
1.9158,Ba-Bi-O-Ta,4,BaTa2Bi2O9
3.4594000000000005,Ba-O-Ta,3,BaTa4O11
0.0,Ba-O-Ta,3,BaTa4O14
2.1822,Ba-O-Ta,3,BaTa6O16
0.0,B-Ba-Ta,3,BaTaB
0.0,Ba-Cu-O-Ta,4,BaTaCuO5
0.3398000000000003,Ba-N-O-Ta,4,BaTaNO2
0.0,Ba-O-Ta,3,BaTaO3
0.0,Ba-S-Ta,3,BaTaS3
0.0,Ba-Se-Ta,3,BaTaSe3
0.0,Ba-Tb,2,BaTb
0.0,Ba-Dy-O-Tb,4,BaTb2DyO6
0.0,Ba-Mn-O-Tb,4,BaTb2Mn2O7
0.6727999999999996,Ba-Mn-O-Tb,4,BaTb2Mn2O7
2.1026,Ba-Ni-O-Tb,4,BaTb2NiO5
3.2062000000000004,Ba-O-Tb,3,BaTb2O4
1.8352,Ba-O-Pd-Tb,4,BaTb2PdO5
0.0,Ba-O-Sm-Tb,4,BaTb2SmO6
0.0,Ba-Dy-O-Tb,4,BaTb4DyO12
0.0,Ba-O-Sm-Tb,4,BaTb4SmO12
1.0016000000000005,Ag-Ba-S-Tb,4,BaTbAgS3
0.7735000000000003,Ag-Ba-Tb-Te,4,BaTbAgTe3
0.5544000000000002,B-Ba-Cu-O-Tb,5,BaTbCuBO5
0.5309999999999997,Ba-Cu-Tb-Te,4,BaTbCuTe3
0.0,Ba-Bi-Eu-O-Tb,5,BaTbEuBiO6
0.0097000000000004,Ba-Eu-O-Sb-Tb,5,BaTbEuSbO6
0.4475000000000007,Ba-Eu-O-Sb-Tb,5,BaTbEuSbO6
0.0,Ba-Eu-O-Sn-Tb,5,BaTbEuSnO6
0.0327999999999999,Ba-Eu-O-Tb-V,5,BaTbEuVO6
0.1467999999999998,Ba-Eu-O-Tb-W,5,BaTbEuWO6
0.0,Ba-Eu-O-Tb-W,5,BaTbEuWO6
0.0,Ba-F-Tb,3,BaTbF6
0.0,Ba-Fe-O-Tb,4,BaTbFe2O5
0.4784000000000001,Ba-Fe-O-Tb,4,BaTbFe4O7
1.6481,Ba-In-O-Tb-W,5,BaTbInWO6
0.0438,Ba-Mn-O-Tb,4,BaTbMn2O5
0.0,Ba-Mn-O-Tb,4,BaTbMn2O5
0.0733000000000001,Ba-Mn-O-Tb,4,BaTbMn2O6
0.0,Ba-Mn-O-Tb,4,BaTbMn2O6
2.4127,Ba-Nb-O-Sn-Tb,5,BaTbNbSnO6
1.7967,Ba-Nb-O-Sn-Tb,5,BaTbNbSnO6
0.0,Ba-Fe-Nd-O-Tb,5,BaTbNdFeO6
0.0,Ba-O-Tb,3,BaTbO3
0.0,Ba-O-Tc,3,BaTcO3
1.593,Ba-Te,2,BaTe
0.7768999999999999,Ba-Te,2,BaTe
0.3512999999999993,Ba-Te,2,BaTe2
4.8686,Ba-F-Te,3,BaTe2F10
0.8198000000000008,Ba-Te,2,BaTe3
2.6495,Ba-Mo-O-Te,4,BaTeMo2O9
2.7149,Ba-O-Te,3,BaTeO3
2.4102,Ba-O-Te,3,BaTeO4
2.1894,Ba-O-Te,3,BaTeO4
3.4154,Ba-O-Te-W,4,BaTeW2O9
0.0,Ba-Th,2,BaTh
5.0577000000000005,Ba-O-P-Th,4,BaTh(PO4)2
0.0,Ba-Th,2,BaTh3
5.0772,Ba-F-Th,3,BaThF6
0.4357999999999995,Ba-N-Th,3,BaThN2
4.047,Ba-O-Th,3,BaThO3
3.2033000000000005,Ba-O-Th,3,BaThO3
0.0,Ba-Te-Th,3,BaThTe4
2.4211,As-Ba-O-Ti,4,BaTi(AsO4)2
2.3877,B-Ba-O-Ti,4,BaTi(BO3)2
2.9973,Ba-Ge-O-Ti,4,BaTi(GeO3)3
2.7339,Ba-I-O-Ti,4,BaTi(IO3)6
2.5924,Ba-O-P-Ti,4,BaTi(PO4)2
3.0661000000000005,Ba-O-Si-Ti,4,BaTi(SiO3)3
0.0,As-Ba-O-Ti,4,BaTi2As2O
0.0,Ba-Bi-O-Ti,4,BaTi2Bi2O
1.5525999999999995,Ba-Fe-O-Ti,4,BaTi2Fe4O11
1.6364,Ba-Fe-O-Ti,4,BaTi2Fe4O11
1.8301000000000005,Ba-O-Ti,3,BaTi2O5
2.2230000000000003,Ba-O-Ti,3,BaTi2O5
2.8033,Ba-O-Ti,3,BaTi2O5
0.0,Ba-O-Sb-Ti,4,BaTi2Sb2O
0.0,Ba-O-Ti-Tl,4,BaTi2TlO6
0.2755000000000001,Al-Ba-O-Ti,4,BaTi4AlO7
1.6025,Ba-Bi-O-Ti,4,BaTi4Bi4O15
0.0,Ba-O-Ti,3,BaTi4O7
0.0,Ba-O-Ti,3,BaTi4O8
2.7042,Ba-O-Ti,3,BaTi4O9
0.0,Ba-O-Sn-Ti,4,BaTi4SnO12
0.0,Ba-O-Ti-Zn,4,BaTi4ZnO8
0.0,Ba-O-Ti,3,BaTi6O12
2.6401000000000003,Ba-O-Ti,3,BaTi6O13
0.0,Ba-O-Ti,3,BaTi8O16
0.0,Al-Ba-Cu-O-Ti,5,BaTiAlCuO5
4.3236,Ba-F-Ti,3,BaTiF6
0.0,Ba-Fe-O-Si-Ti,5,BaTiFe2(SiO5)2
2.0643,Ba-Bi-Fe-O-Ti,5,BaTiFe3(BiO4)3
0.0,Ba-Mn-O-Si-Ti,5,BaTiMn2(SiO5)2
0.0,Ba-Bi-Mn-O-Ti,5,BaTiMnBiO6
0.0,Ba-Mn-Nb-O-Ti,5,BaTiMnNbO6
0.0,Ba-N-Ti,3,BaTiN2
0.6275000000000004,Ba-Ga-Nb-O-Ti,5,BaTiNbGaO6
0.0,Ba-O-Ti,3,BaTiO3
1.6662999999999997,Ba-O-Ti,3,BaTiO3
2.5087,Ba-O-Ti,3,BaTiO3
2.0811,Ba-O-Ti,3,BaTiO3
2.293,Ba-O-Ti,3,BaTiO3
1.7260999999999995,Ba-O-Ti,3,BaTiO3
1.7279999999999998,Ba-O-Ti,3,BaTiO3
0.3567,Ba-O-Ti,3,BaTiO3
3.3400000000000003,Ba-F-O-Ti,4,BaTiOF4
0.0,Ba-S-Ti,3,BaTiS3
0.0,Ba-Se-Ti,3,BaTiSe3
0.0,Ba-Bi-O-Tl,4,BaTl(BiO3)2
0.0,Ba-Co-O-Tl,4,BaTl(CoO3)2
0.0,Ba-Mo-O-Tl,4,BaTl(MoO3)2
0.0,Ba-Ni-O-Tl,4,BaTl(NiO3)2
0.0,Ba-O-Sb-Tl,4,BaTl(SbO3)2
0.0,Ba-O-Sn-Tl,4,BaTl(SnO3)2
0.0,Ba-O-Tl-W,4,BaTl(WO3)2
0.0,Ba-Tl,2,BaTl2
0.2972999999999999,Ba-O-Tl,3,BaTl2O4
0.0091999999999998,Ba-O-Tl,3,BaTl2O4
0.0,Ba-Tl,2,BaTl3
0.0,Au-Ba-Tl,3,BaTl3Au
0.0,Ba-Tl,2,BaTl4
1.0076999999999998,Ba-Cu-Se-Tl,4,BaTlCu3Se4
0.0,Ba-Cu-O-Tl,4,BaTlCuO4
0.0,Ba-Hg-Tl,3,BaTlHg2
0.0,Ba-In-Tl,3,BaTlIn3
0.0,Ba-O-Tl,3,BaTlO3
0.0,Ba-O-Tl-V,4,BaTlV2O6
1.3129999999999995,Ba-Co-O-Tm,4,BaTm2CoO5
0.0,Ba-Cu-O-Tm,4,BaTm2CuO5
7.2347,Ba-F-Tm,3,BaTm2F8
2.1841,Ba-Ni-O-Tm,4,BaTm2NiO5
1.5393,Ba-Ni-O-Tm,4,BaTm2NiO5
2.8879,Ba-O-Tm,3,BaTm2O4
3.2297,Ba-O-Tm,3,BaTm2O4
3.0578000000000003,Ba-O-Tm-Zn,4,BaTm2ZnO5
0.1187,Ba-Co-O-Tm,4,BaTmCo4O7
0.0,Ba-Fe-O-Tm,4,BaTmFe4O7
0.0,Ba-Cu-Fe-O-Tm,5,BaTmFeCuO5
0.0,Ba-O-Tm,3,BaTmO3
2.3906,Ba-O-Si-U,4,BaU(SiO4)2
1.8593,Ba-O-U,3,BaU2O7
0.0,Ba-O-U,3,BaUO3
2.1144,Ba-O-U,3,BaUO4
0.0,Ba-Te-U,3,BaUTe4
0.3463000000000003,Ba-O-V,3,BaV13O18
0.0,Ba-O-V,3,BaV13O18
0.2365000000000003,Ba-O-V,3,BaV13O18
0.0161999999999999,Ba-Ni-O-V,4,BaV2(NiO4)2
0.0,Ag-Ba-Cu-O-V,5,BaV2Cu(AgO4)2
0.0,Ba-Cu-H-O-V,5,BaV2Cu3(HO5)2
2.5876,Ba-H-Ni-O-V,5,BaV2Ni3(HO5)2
2.6466000000000003,Ba-O-V,3,BaV2O6
1.6101,Ba-O-V,3,BaV3O8
1.2406,Ba-O-V,3,BaV4O7
0.0,Ba-O-V,3,BaV4O8
0.8127000000000004,Ba-O-V,3,BaV4O9
0.9247000000000004,Ba-O-V-Zn,4,BaV4ZnO8
0.4209999999999994,Ba-O-V,3,BaV6O11
0.0,Ba-O-V,3,BaV6O11
0.0,Ba-O-V,3,BaV8O16
2.3925,Ba-Cl-O-V,4,BaVClO3
0.0,Ba-In-O-V-W,5,BaVInWO6
0.1521999999999996,Ba-N-V,3,BaVN2
0.0,Ba-O-V,3,BaVO3
2.7946,Ba-F-O-V,4,BaVOF4
2.4971,Ba-F-O-V,4,BaVOF4
2.173,Ba-O-P-V,4,BaVPO6
0.0,Ba-S-V,3,BaVS3
0.0,Ba-S-Se-V,4,BaVSe2S
0.0,Ba-Se-V,3,BaVSe3
0.0,Ba-S-Se-V,4,BaVSeS2
2.8032,Ba-O-Si-V,4,BaVSi2O7
0.0,Ba-O-W,3,BaW4O7
0.0,Ba-O-W,3,BaW6O19
1.2852,Ba-N-W,3,BaWN3
1.0938,Ba-N-W,3,BaWN3
0.0,Ba-O-W,3,BaWO2
0.0,Ba-O-W,3,BaWO3
4.7088,Ba-O-W,3,BaWO4
4.5873,Ba-O-W,3,BaWO4
4.8822,Ba-O-W,3,BaWO4
2.083,Ba-O-W,3,BaWO4
2.7897,Ba-O-W,3,BaWO4
4.7587,Ba-O-W,3,BaWO4
6.276,Ba-F-Y,3,BaY2F8
6.9301,Ba-F-Y,3,BaY2F8
6.8177,Ba-F-Y,3,BaY2F8
2.3003,Ba-Ni-O-Y,4,BaY2NiO5
3.2515,Ba-O-Y,3,BaY2O4
1.7879999999999998,Ba-O-Pd-Y,4,BaY2PdO5
5.0182,Ba-F-O-Si-Y,5,BaY2Si2O7F2
4.8161000000000005,Ba-O-Si-Y,4,BaY2Si3O10
6.8698,Ba-F-Y,3,BaY3F11
5.2315000000000005,B-Ba-F-O-Si-Y,6,BaY6Si3B6(O12F)2
1.3282000000000005,Ag-Ba-Se-Y,4,BaYAgSe3
0.7675000000000001,Ag-Ba-Te-Y,4,BaYAgTe3
2.8388,Ba-Br-Y,3,BaYBr5
3.8317,Ba-Cl-Y,3,BaYCl5
0.0,Ba-Co-O-Y,4,BaYCo2O5
0.0,Ba-Co-O-Y,4,BaYCo4O7
0.7462,Ba-Co-O-Y,4,BaYCo4O7
0.0,Ba-Co-Cu-O-Y,5,BaYCoCuO5
0.3875999999999999,Ba-Co-Cu-O-Y,5,BaYCoCuO5
0.1065000000000004,Ba-Cr-O-Y,4,BaYCr4O7
0.0,Ba-Cr-Cu-O-Y,5,BaYCrCuO5
0.0,Ba-Cu-O-Y,4,BaYCu2O5
1.2651,Ba-Cu-Se-Y,4,BaYCu3Se4
0.0,Ba-Cu-O-Y,4,BaYCu4O7
0.0,Ag-Ba-Cu-O-Y,5,BaYCuAgO5
0.0,Ba-Bi-Cu-O-Y,5,BaYCuBiO5
0.0,Ba-Cu-Mo-O-Y,5,BaYCuMoO5
0.0,Ba-Cu-Ni-O-Y,5,BaYCuNiO5
1.1779000000000002,Ba-Cu-S-Y,4,BaYCuS3
0.0,Ba-Cu-O-Sb-Y,5,BaYCuSbO5
0.9653,Ba-Cu-Se-Y,4,BaYCuSe3
0.0,Ba-Cu-O-Sn-Y,5,BaYCuSnO5
0.5313999999999997,Ba-Cu-Te-Y,4,BaYCuTe3
0.0,Ba-Cu-O-W-Y,5,BaYCuWO5
6.451300000000001,Ba-F-Y,3,BaYF5
7.0045,Ba-F-Y,3,BaYF5
6.618500000000001,Ba-F-Y,3,BaYF5
6.908099999999999,Ba-F-Y,3,BaYF5
6.8295,Ba-F-Y,3,BaYF5
6.6724000000000006,Ba-F-Y,3,BaYF5
6.4525,Ba-F-Y,3,BaYF5
6.661499999999999,Ba-F-Y,3,BaYF5
0.0,Ba-Fe-O-Y,4,BaYFe2O5
0.4659999999999997,Ba-Fe-O-Y,4,BaYFe2O5
1.4460000000000002,Ba-Fe-O-Y,4,BaYFe4O7
0.0,Ba-Fe-O-Y,4,BaYFe4O7
0.0,Ba-Cu-Fe-O-Y,5,BaYFeCuO5
1.6116,Ba-In-O-W-Y,5,BaYInWO6
0.0,Ba-Mg-Y,3,BaYMg14
0.0,Ba-Mg-O-Y,4,BaYMg14O16
0.0,Ba-Mg-Y,3,BaYMg6
0.0,Ba-Mg-O-Y,4,BaYMg6O8
0.0,Ba-Co-Cu-Mg-O-Y,6,BaYMgCoCuO5
0.0,Ba-Cr-Cu-Mg-O-Y,6,BaYMgCrCuO5
0.2949000000000001,Ba-Cu-Mg-O-Y,5,BaYMgCu2O5
0.2122000000000001,Ba-Cu-Mg-O-Y,5,BaYMgCu2O5
0.0,Ba-Cu-Mg-O-Y,5,BaYMgCu2O5
0.3042000000000002,Ag-Ba-Cu-Mg-O-Y,6,BaYMgCuAgO5
0.0,Ag-Ba-Cu-Mg-O-Y,6,BaYMgCuAgO5
0.4152,Ba-Bi-Cu-Mg-O-Y,6,BaYMgCuBiO5
0.0,Ba-Cu-Mg-Ni-O-Y,6,BaYMgCuNiO5
0.0,Ba-Cu-Fe-Mg-O-Y,6,BaYMgFeCuO5
0.7177000000000002,Ba-Cu-Fe-Mg-O-Y,6,BaYMgFeCuO5
0.0,Ba-Cu-Mg-Mn-O-Y,6,BaYMgMnCuO5
0.0,Ba-Cu-Mg-O-Ti-Y,6,BaYMgTiCuO5
0.0,Ba-Mn-O-Y,4,BaYMn2O5
1.2046,Ba-Mn-O-Y,4,BaYMn2O5
0.0,Ba-Mn-O-Y,4,BaYMn2O6
0.0,Ba-Mn-O-Y,4,BaYMn4O7
0.0,Ba-Co-Mn-O-Y,5,BaYMnCoO5
0.1871000000000005,Ba-Co-Mn-O-Y,5,BaYMnCoO5
0.9489,Ba-Co-Mn-O-Y,5,BaYMnCoO5
0.2175000000000002,Ba-Co-Mn-O-Y,5,BaYMnCoO5
0.2053999999999995,Ba-Co-Mn-O-Y,5,BaYMnCoO5
0.0,Ba-Cu-Mn-O-Y,5,BaYMnCuO5
2.4439,Ba-Nb-O-Sn-Y,5,BaYNbSnO6
1.7801999999999998,Ba-Nb-O-Sn-Y,5,BaYNbSnO6
0.0,Ba-Ni-O-Y,4,BaYNi4O7
0.0,Ba-Sc-Y,3,BaYSc
2.7326999999999995,Ba-N-Si-Y,4,BaYSi4N7
2.6432,Ba-O-Sb-Sn-Y,5,BaYSnSbO6
2.3399,Ba-O-Sb-Sn-Y,5,BaYSnSbO6
0.0,Ba-O-Ti-Y,4,BaYTi4O7
0.0,Ba-Cu-O-Ti-Y,5,BaYTiCuO5
0.0,Ba-O-V-Y,4,BaYV4O7
0.0,Ba-Cu-O-V-Y,5,BaYVCuO5
0.0,Ba-O-W-Y,4,BaYW4O7
0.0,Ba-Co-O-Y-Zn,5,BaYZn3CoO7
2.2037,Ba-Ga-O-Y-Zn,5,BaYZn3GaO7
0.0,Ba-Zn,2,BaZn
0.0,Ag-Ba-O-Zn,4,BaZn(AgO2)4
0.5423,Ba-Bi-O-Zn,4,BaZn(BiO2)4
0.0,Ba-Cu-O-Zn,4,BaZn(CuO2)4
0.0,Ba-Fe-O-Zn,4,BaZn(FeO2)4
0.0,Ba-Mo-O-Zn,4,BaZn(MoO2)4
0.3266,Ba-Ni-O-Zn,4,BaZn(NiO2)4
0.0,Ba-O-Sb-Zn,4,BaZn(SbO2)4
0.0,Ba-O-Se-Zn,4,BaZn(SeO3)4
0.0,Ba-O-Sn-Zn,4,BaZn(SnO2)4
0.0,Ba-O-W-Zn,4,BaZn(WO2)4
0.0,Ba-Zn,2,BaZn13
0.0,Ba-Zn,2,BaZn2
0.0,As-Ba-Cu-Zn,4,BaZn2Cu2As3
3.2486,Ba-O-Si-Zn,4,BaZn2Si2O7
3.3032000000000004,Ba-O-Si-Zn,4,BaZn2Si2O7
0.0,Ba-Zn,2,BaZn5
0.2470999999999996,As-Ba-F-Zn,4,BaZnAsF
3.6218,B-Ba-F-O-Zn,5,BaZnBO3F
0.0,Ba-Bi-Zn,3,BaZnBi2
4.7744,Ba-C-F-O-Zn,5,BaZnCO3F2
0.0,Ba-Cr-O-Zn,4,BaZnCr4O8
4.8083,Ba-F-Zn,3,BaZnF4
4.5489,Ba-F-Zn,3,BaZnF4
1.0812,Ba-Fe-O-Zn,4,BaZnFe6O11
0.0,Ba-Ge-Zn,3,BaZnGe
0.0,Ba-In-Zn,3,BaZnIn3
2.2724,Ba-O-Zn,3,BaZnO2
0.0,Ba-O-Zn,3,BaZnO3
4.3419,Ba-O-P-Zn,4,BaZnP2O7
0.0,Ba-Pb-Zn,3,BaZnPb
2.2367,Ba-O-S-Zn,4,BaZnSO
0.0,Ba-Sb-Zn,3,BaZnSb2
0.0,Ba-Si-Zn,3,BaZnSi
0.0,Ba-Sn-Zn,3,BaZnSn
0.0,Ba-Sn-Zn,3,BaZnSn2
1.6684,Ba-O-Te-Zn,4,BaZnTe2O7
3.5173,As-Ba-O-Zr,4,BaZr(AsO4)2
4.1173,B-Ba-O-Zr,4,BaZr(BO3)2
4.158799999999999,Ba-O-P-Zr,4,BaZr(PO4)2
3.8199,Ba-O-P-Zr,4,BaZr(PO4)2
4.6556,Ba-O-Si-Zr,4,BaZr(SiO3)3
5.756399999999999,Ba-F-Zr,3,BaZr2F10
2.6872000000000003,Ba-O-Sn-Zr,4,BaZr2SnO6
3.011,Ba-O-Sn-Zr,4,BaZr2SnO6
2.2404,Ba-O-Pb-Ti-Zr,5,BaZr2Ti3Pb4O15
0.0,Ba-O-Sn-Zr,4,BaZr4SnO12
2.9226000000000005,Ba-O-Pb-Zr,4,BaZr5Pb4O15
5.8986,Ba-F-Zr,3,BaZrF6
5.927300000000001,Ba-F-Zr,3,BaZrF6
0.7056999999999993,Ba-In-O-Sb-Zr,5,BaZrInSbO6
0.9972000000000004,Ba-N-Zr,3,BaZrN2
0.6060999999999996,Ba-In-Nb-O-Zr,5,BaZrNbInO6
0.0,Ba-Ni-Zr,3,BaZrNi
3.1163,Ba-O-Zr,3,BaZrO3
3.0377,Ba-O-Zr,3,BaZrO3
0.0,Ba-P-Zr,3,BaZrP2
0.0,Ba-Se-Zr,3,BaZrSe3
0.2023999999999999,Ba-Se-Zr,3,BaZrSe3
0.0,Ba-In-O-Ti-Zr,5,BaZrTiInO6
1.5482,Ba-O-Pb-Ti-Zr,5,BaZrTiPbO6
0.0,Be,1,Be
0.0,B-Be-C,3,Be(B6C)2
0.2171000000000003,B-Be-C,3,Be(BC)2
5.9465,Be-C-N,3,Be(CN)2
0.0,Be-Co-O,3,Be(CoO2)2
1.8397,Be-Fe-O,3,Be(FeO2)2
1.8642,Be-Fe-O,3,Be(FeO2)2
2.6235,Be-Ga-O,3,Be(GaO2)2
2.7475,Be-Ga-O,3,Be(GaO2)2
2.8899,Be-Ga-O,3,Be(GaO2)2
4.2384,Be-H-O,3,Be(HO)2
4.0122,Be-H-O,3,Be(HO)2
5.1311,Be-H-O,3,Be(HO)2
5.4571,Be-H-O,3,Be(HO)2
5.7156,Be-H-O,3,Be(HO)2
3.6594000000000007,Be-N-P,3,Be(PN2)2
6.0368,Be-O-P,3,Be(PO3)2
5.8495,Be-O-P,3,Be(PO3)2
0.0,Be-Ru,2,Be10Ru3
0.0,Ag-Be,2,Be12Ag
0.0,Au-Be,2,Be12Au
0.0,Be-Co,2,Be12Co
0.0,Be-Cr,2,Be12Cr
0.0,Be-Fe,2,Be12Fe
0.0,Be-Mo,2,Be12Mo
0.0,Be-Nb,2,Be12Nb
0.0,Be-Pd,2,Be12Pd
0.0,Be-Pt,2,Be12Pt
0.0,Be-V,2,Be12V
0.0,Be-W,2,Be12W
0.0,Be-Sb,2,Be13Sb
0.0,Be-Cu-Nb,3,Be15(Nb3Cu4)2
0.0,Be-Nb-Ni,3,Be15(Nb3Ni4)2
0.0,Be-Nb,2,Be17Nb2
0.0,Be-Mo,2,Be22Mo
0.0,Be-Re,2,Be22Re
0.0,Be-W,2,Be22W
0.0,Ag-Be,2,Be2Ag
0.0,B-Be,2,Be2B
5.6645,B-Be-H-O,4,Be2BH3O5
5.6261,B-Be-H-O,4,Be2BH3O5
5.9569,B-Be-H-O,4,Be2BH3O5
6.462899999999999,B-Be-F-O,4,Be2BO3F
0.0,B-Be-O,3,Be2BO5
1.1636999999999995,Be-C,2,Be2C
0.0,Be-Cd-P,3,Be2CdP
0.0,Be-Co,2,Be2Co
1.8831,Be-Co-F-H-N,5,Be2CoH6(NF4)2
0.1337999999999999,Be-Co-F-H-N,5,Be2CoH6(NF4)2
0.0,Be-Co-Ir,3,Be2CoIr
0.0,Be-Co-Ni,3,Be2CoNi
0.0,Be-Co-Pt,3,Be2CoPt
0.0,Be-Co-Si,3,Be2CoSi
0.0,Be-Cr,2,Be2Cr
0.0,Be-Cu,2,Be2Cu
0.0,Be-Cu-Ir,3,Be2CuIr
0.0,Be-Cu-Ni,3,Be2CuNi
0.0,Be-Cu-Pt,3,Be2CuPt
0.0,Be-Cu-Rh,3,Be2CuRh
0.0,Be-Cu-Ru,3,Be2CuRu
0.0,Be-Fe,2,Be2Fe
0.0,Be-Fe-Ru,3,Be2FeRu
3.9903,Be-Ge-O,3,Be2GeO4
0.0,Be-Hg-Te,3,Be2HgTe
0.0,Be-Ir-Pd,3,Be2IrPd
0.0,Be-Ir-Pt,3,Be2IrPt
0.0,Be-Ir-Ru,3,Be2IrRu
0.0,Be-Mo,2,Be2Mo
0.0,Be-Nb,2,Be2Nb
0.0,Be-Nb,2,Be2Nb3
0.0,Be-Ir-Ni,3,Be2NiIr
0.0,Be-Ni-Pd,3,Be2NiPd
0.0,Be-Ni-Pt,3,Be2NiPt
0.0,Be-Ni-Rh,3,Be2NiRh
0.0,Be-Ni-Ru,3,Be2NiRu
5.4393,Be-O-P,3,Be2P2O7
0.0,Be-N-O-P,4,Be2P3NO10
0.0,Be-Pd-Pt,3,Be2PdPt
0.0,Be-Pd-Rh,3,Be2PdRh
0.0,Be-Pt-Rh,3,Be2PtRh
0.0,Be-Re,2,Be2Re
0.0,Be-Cl-Re,3,Be2ReCl
0.0,Au-Be-Rh,3,Be2RhAu
0.0,Be-Ru,2,Be2Ru
0.0,Au-Be-Ru,3,Be2RuAu
0.0,Be-Pt-Ru,3,Be2RuPt
0.0,Be-Si,2,Be2Si
0.4224999999999994,Be-O-Si,3,Be2Si2O5
6.042000000000001,Be-O-Si,3,Be2SiO4
4.6157,Be-F-Tl,3,Be2TlF5