eg,chemsys,nelements,formula
0.0,Au-Cl-Cs-Eu,4,Cs2EuAuCl6
0.0,Cl-Cs-Cu-Eu,4,Cs2EuCuCl6
3.3551,Cs-F-Fe-H,4,Cs2FeHF5
1.3748,C-Cs-Fe-N-Ni,5,Cs2FeNi(CN)6
0.0,Cs-F-Fe-O,4,Cs2FeOF5
0.1100999999999999,Ag-Br-Cs-Ga,4,Cs2GaAgBr6
1.2972,Ag-Cl-Cs-Ga,4,Cs2GaAgCl6
2.7308,Ag-Cs-F-Ga,4,Cs2GaAgF6
0.0,Ag-Cs-Ga-I,4,Cs2GaAgI6
0.0,Au-Br-Cs-Ga,4,Cs2GaAuBr6
0.0,Au-Cl-Cs-Ga,4,Cs2GaAuCl6
0.9632,Au-Cs-F-Ga,4,Cs2GaAuF6
0.0,Au-Cs-Ga-I,4,Cs2GaAuI6
0.0,Cl-Cs-Cu-Ga,4,Cs2GaCuCl6
0.3699000000000001,Cs-Fe-Ga-S,4,Cs2GaFeS4
0.0,Br-Cs-Ga-Hg,4,Cs2GaHgBr6
0.0,Cl-Cs-Ga-Hg,4,Cs2GaHgCl6
0.0,Cs-F-Ga-Hg,4,Cs2GaHgF6
0.0,Cs-Ga-Hg-I,4,Cs2GaHgI6
0.0,Ag-Cl-Cs-Gd,4,Cs2GdAgCl6
1.5419,Au-Cl-Cs-Gd,4,Cs2GdAuCl6
0.6737000000000002,Cs-Ge-O-Te,4,Cs2Ge(TeO4)3
4.274900000000001,B-Cs-Ge-O,4,Cs2GeB4O9
2.215,Cl-Cs-Ge,3,Cs2GeCl6
6.0336,Cs-F-Ge,3,Cs2GeF6
1.6551999999999998,Cs-Ge-Se,3,Cs2GeSe3
3.4412000000000003,C-Cs-H-O,4,Cs2H2C2O5
2.9382,Cs-H-Pd,3,Cs2H4Pd
3.2534,Cs-H-Pt,3,Cs2H4Pt
4.0513,C-Cs-H-O,4,Cs2H6CO6
3.9083,Cs-H-Pt,3,Cs2H6Pt
2.976,Cs-Hf-O-W,4,Cs2Hf(WO4)3
3.0183,Cs-Hf-O-W,4,Cs2Hf(WO4)3
3.2973,Br-Cs-Hf,3,Cs2HfBr6
4.2277000000000005,Cl-Cs-Hf,3,Cs2HfCl6
7.2288,Cs-F-Hf,3,Cs2HfF6
2.2062,Cs-Hf-I,3,Cs2HfI6
3.8373,Cs-Hf-O,3,Cs2HfO3
1.7759,Cs-Ge-Hg-S,4,Cs2Hg3(GeS4)2
0.0,As-Br-Cs-Hg,4,Cs2HgAsBr6
0.0,As-Cl-Cs-Hg,4,Cs2HgAsCl6
0.0,As-Cs-F-Hg,4,Cs2HgAsF6
0.0,As-Cs-Hg-I,4,Cs2HgAsI6
0.0,Au-Br-Cs-Hg,4,Cs2HgAuBr6
0.0,Au-Cs-F-Hg,4,Cs2HgAuF6
0.0,Bi-Br-Cs-Hg,4,Cs2HgBiBr6
0.0,Bi-Cl-Cs-Hg,4,Cs2HgBiCl6
0.0,Bi-Cs-F-Hg,4,Cs2HgBiF6
0.0,Bi-Cs-Hg-I,4,Cs2HgBiI6
2.0818,Cs-F-Hg,3,Cs2HgF4
0.0,Cs-F-Hg-Ir,4,Cs2HgIrF6
0.0,Cs-F-Hg-Mo,4,Cs2HgMoF6
2.0689,Cs-Hg-O,3,Cs2HgO2
1.0295,Cl-Cs-Hg-Pd,4,Cs2HgPdCl6
0.0,Cs-F-Hg-Pd,4,Cs2HgPdF6
0.0,Br-Cs-Hg-Sb,4,Cs2HgSbBr6
0.0,Cl-Cs-Hg-Sb,4,Cs2HgSbCl6
0.0,Cs-F-Hg-Sb,4,Cs2HgSbF6
0.0,Cs-Hg-I-Sb,4,Cs2HgSbI6
1.8046,Cs-Hg-Te,3,Cs2HgTe
0.8589,Br-Cl-Cs-I,4,Cs2IBrCl6
1.1261,Cl-Cs-F-I,4,Cs2ICl6F
0.0,Cs-In,2,Cs2In3
0.3104,Ag-Br-Cs-In,4,Cs2InAgBr6
1.3421,Ag-Cl-Cs-In,4,Cs2InAgCl6
2.1888,Ag-Cs-F-In,4,Cs2InAgF6
0.0,Ag-Cs-I-In,4,Cs2InAgI6
0.7186999999999999,As-Br-Cs-In,4,Cs2InAsBr6
1.3524,As-Cl-Cs-In,4,Cs2InAsCl6
2.1016000000000004,As-Cs-F-In,4,Cs2InAsF6
0.129,As-Cs-I-In,4,Cs2InAsI6
0.0,Au-Br-Cs-In,4,Cs2InAuBr6
0.0,Au-Cl-Cs-In,4,Cs2InAuCl6
0.6895,Au-Cs-F-In,4,Cs2InAuF6
0.0,Au-Cs-I-In,4,Cs2InAuI6
0.8533999999999999,Bi-Br-Cs-In,4,Cs2InBiBr6
1.7612,Bi-Cl-Cs-In,4,Cs2InBiCl6
2.2862,Bi-Cs-F-In,4,Cs2InBiF6
0.0,Br-Cs-Cu-In,4,Cs2InCuBr6
0.0,Cl-Cs-Cu-In,4,Cs2InCuCl6
0.0916999999999998,Cs-Cu-F-In,4,Cs2InCuF6
1.244,Br-Cs-Ga-In,4,Cs2InGaBr6
1.9897,Cl-Cs-Ga-In,4,Cs2InGaCl6
3.3133,Cs-F-Ga-In,4,Cs2InGaF6
0.2835000000000001,Cs-Ga-I-In,4,Cs2InGaI6
0.0,Br-Cs-Hg-In,4,Cs2InHgBr6
0.0,Cl-Cs-Hg-In,4,Cs2InHgCl6
0.0,Cs-F-Hg-In,4,Cs2InHgF6
0.0,Cs-Hg-I-In,4,Cs2InHgI6
0.7464999999999999,Br-Cs-In-Sb,4,Cs2InSbBr6
1.3727000000000005,Cl-Cs-In-Sb,4,Cs2InSbCl6
2.2147,Cs-F-In-Sb,4,Cs2InSbF6
0.5823999999999998,Cs-I-In-Sb,4,Cs2InSbI6
0.0,Cl-Cs-Ir,3,Cs2IrCl6
0.0776999999999999,Cs-F-Ir,3,Cs2IrF6
0.0,Cs-Fe-K-O,4,Cs2K4Fe2O5
0.6370999999999999,Ag-Cs-F-K,4,Cs2KAgF6
3.2314,Al-Br-Cs-K,4,Cs2KAlBr6
4.6198,Al-Cl-Cs-K,4,Cs2KAlCl6
6.6738,Al-Cs-F-K,4,Cs2KAlF6
1.7447,Al-Cs-I-K,4,Cs2KAlI6
3.0015,As-Br-Cs-K,4,Cs2KAsBr6
3.4599,As-Cl-Cs-K,4,Cs2KAsCl6
4.6474,As-Cs-F-K,4,Cs2KAsF6
1.885,As-Cs-I-K,4,Cs2KAsI6
0.0,Au-Br-Cs-K,4,Cs2KAuBr6
0.2103,Au-Cl-Cs-K,4,Cs2KAuCl6
0.788,Au-Cs-F-K,4,Cs2KAuF6
3.4246,Bi-Br-Cs-K,4,Cs2KBiBr6
4.0357,Bi-Cl-Cs-K,4,Cs2KBiCl6
4.9469,Bi-Cs-F-K,4,Cs2KBiF6
0.314,Br-Ce-Cs-K,4,Cs2KCeBr6
4.0361,Ce-Cl-Cs-K,4,Cs2KCeCl6
0.4186999999999994,Ce-Cs-F-K,4,Cs2KCeF6
3.0136000000000003,Co-Cs-F-K,4,Cs2KCoF6
1.5535,Cl-Cr-Cs-K,4,Cs2KCrCl6
4.287,Cr-Cs-F-K,4,Cs2KCrF6
0.8990999999999999,Cs-Cu-F-K,4,Cs2KCuF6
5.1988,Cl-Cs-Dy-K,4,Cs2KDyCl6
5.2229,Cl-Cs-Er-K,4,Cs2KErCl6
0.0,Cl-Cs-Eu-K,4,Cs2KEuCl6
4.095599999999999,Cs-F-Fe-K,4,Cs2KFeF6
2.1255,Br-Cs-Ga-K,4,Cs2KGaBr6
3.3316,Cl-Cs-Ga-K,4,Cs2KGaCl6
6.0476,Cs-F-Ga-K,4,Cs2KGaF6
0.8284000000000001,Cs-Ga-I-K,4,Cs2KGaI6
3.2188,Cl-Cs-Gd-K,4,Cs2KGdCl6
5.2294,Cl-Cs-Ho-K,4,Cs2KHoCl6
2.3809,Br-Cs-In-K,4,Cs2KInBr6
3.5784,Cl-Cs-In-K,4,Cs2KInCl6
5.4629,Cs-F-In-K,4,Cs2KInF6
4.842,Cl-Cs-K-La,4,Cs2KLaCl6
6.2199,Cs-F-K-La,4,Cs2KLaF6
5.2423,Cl-Cs-K-Lu,4,Cs2KLuCl6
1.7435,Cs-F-K-Mn,4,Cs2KMnF6
0.0,Cs-F-K-Mn,4,Cs2KMnF6
1.6085,Br-Cs-K-Mo,4,Cs2KMoBr6
1.666,Cl-Cs-K-Mo,4,Cs2KMoCl6
4.1117,Cs-F-K-Mo,4,Cs2KMoF6
1.4527,Cs-I-K-Mo,4,Cs2KMoI6
2.9855,Cs-F-K-N,4,Cs2KNF6
4.2395,Br-Cs-K-Nd,4,Cs2KNdBr6
5.1287,Cl-Cs-K-Nd,4,Cs2KNdCl6
0.0,Cs-F-K-Ni,4,Cs2KNiF6
0.0,Cs-F-K-Pb,4,Cs2KPbF6
0.0,Cs-F-K-Pd,4,Cs2KPdF6
0.4386,Cs-F-K-Pd,4,Cs2KPdF6
4.2336,Br-Cs-K-Pr,4,Cs2KPrBr6
4.9929,Cl-Cs-K-Pr,4,Cs2KPrCl6
6.2956,Cs-F-K-Pr,4,Cs2KPrF6
0.0,Cs-K-Rb,3,Cs2KRb
2.1013,Cs-F-K-Rh,4,Cs2KRhF6
0.0,Cs-F-K-Ru,4,Cs2KRuF6
2.8501000000000003,Br-Cs-K-Sb,4,Cs2KSbBr6
3.393,Cl-Cs-K-Sb,4,Cs2KSbCl6
4.1778,Cs-F-K-Sb,4,Cs2KSbF6
3.1875,Br-Cs-K-Sc,4,Cs2KScBr6
3.7113,Cl-Cs-K-Sc,4,Cs2KScCl6
6.8201,Cs-F-K-Sc,4,Cs2KScF6
2.3591,Cs-I-K-Sc,4,Cs2KScI6
5.4636,Cs-F-K-Si,4,Cs2KSiF7
5.0573,Cl-Cs-K-Sm,4,Cs2KSmCl6
0.0,Br-Cs-K-Ta,4,Cs2KTaBr6
0.0,Cl-Cs-K-Ta,4,Cs2KTaCl6
0.0,Cs-F-K-Ta,4,Cs2KTaF6
0.0,Cs-I-K-Ta,4,Cs2KTaI6
5.0878,Cl-Cs-K-Tb,4,Cs2KTbCl6
0.0,Cs-F-K-Ti,4,Cs2KTiF6
3.84,Cs-F-K-O-Ti,5,Cs2KTiO2F3
1.3749,Br-Cs-K-Tl,4,Cs2KTlBr6
2.3439,Cl-Cs-K-Tl,4,Cs2KTlCl6
3.8205,Cs-F-K-Tl,4,Cs2KTlF6
5.2319,Cl-Cs-K-Tm,4,Cs2KTmCl6
0.0,Cs-K-O-Si-U,5,Cs2KU2(Si2O7)2
0.0,Cs-F-K-V,4,Cs2KVF6
4.2852,Br-Cs-K-Y,4,Cs2KYBr6
5.1935,Cl-Cs-K-Y,4,Cs2KYCl6
6.464,Cs-F-K-Y,4,Cs2KYF6
4.8774,Cs-F-K-O-Zr,5,Cs2KZrOF5
3.6099,Ag-Cl-Cs-La,4,Cs2LaAgCl6
2.2750000000000004,Au-Cl-Cs-La,4,Cs2LaAuCl6
2.1808,Cl-Cs-Cu-La,4,Cs2LaCuCl6
0.3411999999999997,Cs-La-Nb-O,4,Cs2LaNb2O7
0.0,Cs-I-Li-O,4,Cs2Li(IO3)2
0.2681,Cs-I-Li-O,4,Cs2Li(IO3)2
0.0,Cs-Li-O-Tb,4,Cs2Li14Tb3O14
3.4744,Cs-Ge-Li-O,4,Cs2Li2GeO4
3.8531,Cs-Li-O-Si,4,Cs2Li2SiO4
3.9554,Cs-Li-O-Ti,4,Cs2Li2TiO4
4.4362,Br-Cs-Li,3,Cs2Li3Br5
5.618399999999999,Cs-F-Li,3,Cs2Li3F5
3.6593,Cs-Ga-Li-O,4,Cs2Li3GaO4
3.8569,Cs-I-Li,3,Cs2Li3I5
3.8262,Cs-I-Li,3,Cs2Li3I5
2.1196,Cs-Li-O-U,4,Cs2Li4UO6
7.0872,Al-Cs-F-Li,4,Cs2LiAl3F12
6.8832,Al-Cs-F-Li,4,Cs2LiAlF6
3.7302,As-Cs-Li-O,4,Cs2LiAsO4
0.0,Au-Cl-Cs-Li,4,Cs2LiAuCl6
0.5297999999999999,Au-Cs-F-Li,4,Cs2LiAuF6
2.9154,Bi-Br-Cs-Li,4,Cs2LiBiBr6
3.6075,Bi-Cl-Cs-Li,4,Cs2LiBiCl6
4.8946000000000005,Bi-Cs-F-Li,4,Cs2LiBiF6
1.9323,Bi-Cs-I-Li,4,Cs2LiBiI6
4.3476,Br-Cs-Li,3,Cs2LiBr3
0.2909000000000001,Br-Ce-Cs-Li,4,Cs2LiCeBr6
0.3208000000000002,Ce-Cl-Cs-Li,4,Cs2LiCeCl6
0.5298999999999996,Ce-Cs-F-Li,4,Cs2LiCeF6
0.2572000000000001,Ce-Cs-I-Li,4,Cs2LiCeI6
5.13,Cl-Cs-Li,3,Cs2LiCl3
4.2816,C-Co-Cs-Li-N,5,Cs2LiCo(CN)6
1.7169,C-Cr-Cs-Li-N,5,Cs2LiCr(CN)6
3.1832000000000003,Cr-Cs-F-Li,4,Cs2LiCr3F12
4.3359000000000005,Cr-Cs-F-Li,4,Cs2LiCrF6
5.0917,Cl-Cs-Dy-Li,4,Cs2LiDyCl6
5.1941,Cl-Cs-Er-Li,4,Cs2LiErCl6
0.0,Cl-Cs-Eu-Li,4,Cs2LiEuCl6
5.659000000000001,Cs-F-Li,3,Cs2LiF3
0.0,C-Cs-Fe-Li-N,5,Cs2LiFe(CN)6
6.1433,Cs-F-Ga-Li,4,Cs2LiGaF6
2.782,Cl-Cs-Gd-Li,4,Cs2LiGdCl6
1.5789,Br-Cs-In-Li,4,Cs2LiInBr6
2.7765,Cl-Cs-In-Li,4,Cs2LiInCl6
5.227,Cs-F-In-Li,4,Cs2LiInF6
5.4079,C-Cs-Ir-Li-N,5,Cs2LiIr(CN)6
3.7835,Br-Cs-La-Li,4,Cs2LiLaBr6
4.4927,Cl-Cs-La-Li,4,Cs2LiLaCl6
5.3389,Cl-Cs-Li-Lu,4,Cs2LiLuCl6
0.0,C-Cs-Li-Mn-N,5,Cs2LiMn(CN)6
1.2684000000000002,Br-Cs-Li-Mo,4,Cs2LiMoBr6
1.5978,Cl-Cs-Li-Mo,4,Cs2LiMoCl6
4.8178,Cs-F-Li-Mo,4,Cs2LiMoF6
0.9856000000000004,Cs-I-Li-Mo,4,Cs2LiMoI6
2.467,Cs-F-Li-N,4,Cs2LiNF6
0.0,Cs-F-Li-Nb,4,Cs2LiNbF6
3.9972,Br-Cs-Li-Nd,4,Cs2LiNdBr6
4.8227,Cl-Cs-Li-Nd,4,Cs2LiNdCl6
7.055000000000001,Cs-F-Li-Nd,4,Cs2LiNdF6
2.9743000000000004,Cs-I-Li-Nd,4,Cs2LiNdI6
0.0,Cs-F-Li-Pd,4,Cs2LiPdF6
3.9721,Br-Cs-Li-Pr,4,Cs2LiPrBr6
4.7971,Cl-Cs-Li-Pr,4,Cs2LiPrCl6
6.9993,Cs-F-Li-Pr,4,Cs2LiPrF6
2.9609,Cs-I-Li-Pr,4,Cs2LiPrI6
2.3396,Br-Cs-Li-Sb,4,Cs2LiSbBr6
2.9508,Cl-Cs-Li-Sb,4,Cs2LiSbCl6
4.1258,Cs-F-Li-Sb,4,Cs2LiSbF6
1.7376,Cs-I-Li-Sb,4,Cs2LiSbI6
3.7738,Cl-Cs-Li-Sc,4,Cs2LiScCl6
6.6268,Cs-F-Li-Sc,4,Cs2LiScF6
4.9508,Cl-Cs-Li-Sm,4,Cs2LiSmCl6
0.0,Br-Cs-Li-Ta,4,Cs2LiTaBr6
0.0,Cl-Cs-Li-Ta,4,Cs2LiTaCl6
0.0,Cs-F-Li-Ta,4,Cs2LiTaF6
0.0,Cs-I-Li-Ta,4,Cs2LiTaI6
5.0434,Cl-Cs-Li-Tb,4,Cs2LiTbCl6
0.5505,Br-Cs-Li-Tl,4,Cs2LiTlBr6
1.5236,Cl-Cs-Li-Tl,4,Cs2LiTlCl6
3.4749,Cs-F-Li-Tl,4,Cs2LiTlF6
2.2391,Cs-Li-O-Tm-W,5,Cs2LiTm2(WO4)4
1.9371,Cs-Li-O-Tm-W,5,Cs2LiTm2(WO4)4
5.2527,Cl-Cs-Li-Tm,4,Cs2LiTmCl6
2.1634,Cs-F-Li-V,4,Cs2LiV3F12
3.9955,Cs-Li-O-V,4,Cs2LiVO4
4.0508,Br-Cs-Li-Y,4,Cs2LiYBr6
4.8986,Cl-Cs-Li-Y,4,Cs2LiYCl6
7.266299999999999,Cs-F-Li-Y,4,Cs2LiYF6
3.0085,Cs-I-Li-Y,4,Cs2LiYI6
3.7052,Ag-Cl-Cs-Lu,4,Cs2LuAgCl6
0.2294,Cs-Fe-Mg-S,4,Cs2Mg(FeS2)2
0.0,Cs-Mg-O-Re,4,Cs2Mg(ReO4)2
0.2784,Cs-Mg-O-Re,4,Cs2Mg(ReO4)2
4.1775,C-Cs-Fe-Mg-N,5,Cs2MgFe(CN)6
2.9953000000000003,Cs-H-Mg,3,Cs2MgH4
0.9732,Br-Cs-Mg-Mn-O-V,6,Cs2MgMnV2(BrO3)2
0.0,Br-Cs-Mg-Mn-O-V,6,Cs2MgMnV2(BrO3)2
1.4879999999999998,Cl-Cs-Mg-Mn-O-V,6,Cs2MgMnV2(ClO3)2
2.3578,Cs-F-Mg-Mo-O,5,Cs2MgMo2(O2F3)2
1.3547,Cs-F-Mg-Mo-O,5,Cs2MgMo2(O2F3)2
5.3771,Cs-H-Mg-O-P,5,Cs2MgP4(HO2)8
0.5276000000000001,Cs-Cu-F-Mg-O-Ti,6,Cs2MgTi2Cu2(OF5)2
0.5026999999999999,Cl-Cs-Mn-O,4,Cs2Mn(Cl2O)2
0.0346000000000001,Cs-Mn-S,3,Cs2Mn3S4
1.2688,Cl-Cs-Mn,3,Cs2MnCl4
1.3422999999999998,Cl-Cs-Mn,3,Cs2MnCl6
3.4594,Cs-F-Mn,3,Cs2MnF4
1.3155,Cs-F-Mn,3,Cs2MnF5
3.3832,Cs-F-Mn,3,Cs2MnF6
0.0,C-Cs-Fe-Mn-N,5,Cs2MnFe(CN)6
0.3873999999999999,Cs-F-Hg-Mn,4,Cs2MnHgF6
3.9301,Cs-F-Mn-Ni,4,Cs2MnNiF6
0.2309999999999998,Cs-Mn-O,3,Cs2MnO4
0.0,Cs-F-Mn-O,4,Cs2MnOF5
1.1924,Cs-Mn-S,3,Cs2MnS2
0.0,Cs-Mn-Se,3,Cs2MnSe2
1.0568,Cs-Mn-Te,3,Cs2MnTe2
0.0,Cs-Mn-Te,3,Cs2MnTe2
2.4497,Cs-Mo-O-S,4,Cs2Mo(SO)2
0.0,Br-Cs-Mo,3,Cs2MoBr6
0.0,Cl-Cs-Mo,3,Cs2MoCl6
0.0,Cs-Ir-Na-O,4,Cs2Na2IrO4
6.9175,Al-Cs-F-Na,4,Cs2NaAl3F12
4.121300000000001,Al-Cl-Cs-Na,4,Cs2NaAlCl6
6.7033000000000005,Al-Cs-F-Na,4,Cs2NaAlF6
6.697,Al-Cs-F-Na,4,Cs2NaAlF6
1.9338,Al-Cs-H-Na,4,Cs2NaAlH6
2.559,As-Br-Cs-Na,4,Cs2NaAsBr6
3.062,As-Cl-Cs-Na,4,Cs2NaAsCl6
4.557799999999999,As-Cs-F-Na,4,Cs2NaAsF6
3.5373,As-Cs-Na-O,4,Cs2NaAsO4
0.0,Au-Br-Cs-Na,4,Cs2NaAuBr6
0.0,Au-Cl-Cs-Na,4,Cs2NaAuCl6
0.6262,Au-Cs-F-Na,4,Cs2NaAuF6
3.1775,Bi-Br-Cs-Na,4,Cs2NaBiBr6
3.7126,Bi-Cl-Cs-Na,4,Cs2NaBiCl6
5.021000000000001,Bi-Cs-F-Na,4,Cs2NaBiF6
2.1074,Bi-Cs-I-Na,4,Cs2NaBiI6
0.0,Ca-Cl-Cs-Na,4,Cs2NaCaCl6
0.0,Ca-Cs-F-Na,4,Cs2NaCaF6
3.1789,Br-Ce-Cs-Na,4,Cs2NaCeBr6
0.3601000000000001,Ce-Cl-Cs-Na,4,Cs2NaCeCl6
6.3611,Ce-Cs-F-Na,4,Cs2NaCeF6
2.3813,Ce-Cs-I-Na,4,Cs2NaCeI6
0.9021,Co-Cs-F-Na,4,Cs2NaCoF6
1.3532,Cl-Cr-Cs-Na,4,Cs2NaCrCl6
3.6721,Cr-Cs-F-Na,4,Cs2NaCrF6
5.0424,Cl-Cs-Dy-Na,4,Cs2NaDyCl6
5.3424,Cl-Cs-Er-Na,4,Cs2NaErCl6
6.8647,Cs-Er-F-Na,4,Cs2NaErF6
0.0,Cl-Cs-Eu-Na,4,Cs2NaEuCl6
3.841,Cs-F-Fe-Na,4,Cs2NaFeF6
4.0522,Cs-F-Fe-Na,4,Cs2NaFeF6
1.6072,Br-Cs-Ga-Na,4,Cs2NaGaBr6
2.8347,Cl-Cs-Ga-Na,4,Cs2NaGaCl6
5.8467,Cs-F-Ga-Na,4,Cs2NaGaF6
5.9704,Cs-F-Ga-Na,4,Cs2NaGaF6
1.0896,Cs-Ga-H-Na,4,Cs2NaGaH6
1.4820000000000002,Cs-Ga-Na-P,4,Cs2NaGaP2
3.0186,Cl-Cs-Gd-Na,4,Cs2NaGdCl6
5.2906,Cl-Cs-Ho-Na,4,Cs2NaHoCl6
1.8935,Br-Cs-In-Na,4,Cs2NaInBr6
2.9904,Cl-Cs-In-Na,4,Cs2NaInCl6
5.304,Cs-F-In-Na,4,Cs2NaInF6
1.2557999999999998,Cs-H-In-Na,4,Cs2NaInH6
0.6998,Cs-I-In-Na,4,Cs2NaInI6
2.2607,Cs-F-Ir-Na,4,Cs2NaIrF6
3.8471,Br-Cs-La-Na,4,Cs2NaLaBr6
4.6183,Cl-Cs-La-Na,4,Cs2NaLaCl6
0.0,Cs-F-Li-Na,4,Cs2NaLiF6
5.494,Cl-Cs-Lu-Na,4,Cs2NaLuCl6
0.0,Cs-F-Mg-Na,4,Cs2NaMgF6
0.0,Cs-F-Mn-Na,4,Cs2NaMnF6
1.4443,Br-Cs-Mo-Na,4,Cs2NaMoBr6
1.6371,Cl-Cs-Mo-Na,4,Cs2NaMoCl6
4.3824000000000005,Cs-F-Mo-Na,4,Cs2NaMoF6
1.0847,Cs-I-Mo-Na,4,Cs2NaMoI6
2.7974,Cs-F-N-Na,4,Cs2NaNF6
4.1254,Br-Cs-Na-Nd,4,Cs2NaNdBr6
4.9943,Cl-Cs-Na-Nd,4,Cs2NaNdCl6
6.7399,Cs-F-Na-Nd,4,Cs2NaNdF6
0.0,Cs-F-Na-Ni,4,Cs2NaNiF6
0.0,Cs-F-Na-Pb,4,Cs2NaPbF6
4.1252,Br-Cs-Na-Pr,4,Cs2NaPrBr6
4.9676,Cl-Cs-Na-Pr,4,Cs2NaPrCl6
6.6211,Cs-F-Na-Pr,4,Cs2NaPrF6
3.1147,Cs-I-Na-Pr,4,Cs2NaPrI6
1.9082000000000003,Cs-F-Na-Rh,4,Cs2NaRhF6
0.0,Cs-F-Na-Ru,4,Cs2NaRuF6
2.556,Br-Cs-Na-Sb,4,Cs2NaSbBr6
3.0473,Cl-Cs-Na-Sb,4,Cs2NaSbCl6
4.2317,Cs-F-Na-Sb,4,Cs2NaSbF6
1.8895,Cs-I-Na-Sb,4,Cs2NaSbI6
3.1061,Br-Cs-Na-Sc,4,Cs2NaScBr6
3.8894,Cl-Cs-Na-Sc,4,Cs2NaScCl6
6.8066,Cs-F-Na-Sc,4,Cs2NaScF6
2.2294,Cs-I-Na-Sc,4,Cs2NaScI6
5.1745,Cl-Cs-Na-Sm,4,Cs2NaSmCl6
6.924799999999999,Cs-F-Na-Sm,4,Cs2NaSmF6
0.0,Cs-F-Na-Sr,4,Cs2NaSrF6
0.0,Br-Cs-Na-Ta,4,Cs2NaTaBr6
0.0,Cl-Cs-Na-Ta,4,Cs2NaTaCl6
0.0,Cs-F-Na-Ta,4,Cs2NaTaF6
0.0,Cs-I-Na-Ta,4,Cs2NaTaI6
5.2046,Cl-Cs-Na-Tb,4,Cs2NaTbCl6
6.861800000000001,Cs-F-Na-Tb,4,Cs2NaTbF6
0.0,Cs-F-Na-Ti,4,Cs2NaTiF6
1.0093,Br-Cs-Na-Tl,4,Cs2NaTlBr6
1.9178,Cl-Cs-Na-Tl,4,Cs2NaTlCl6
3.6228,Cs-F-Na-Tl,4,Cs2NaTlF6
0.0817,Cs-I-Na-Tl,4,Cs2NaTlI6
5.4487,Cl-Cs-Na-Tm,4,Cs2NaTmCl6
0.5004,Cl-Cs-Na-U,4,Cs2NaUCl6
0.0,Cs-F-Na-V,4,Cs2NaVF6
3.7034,Cs-Na-O-V,4,Cs2NaVO4
4.2176,Br-Cs-Na-Y,4,Cs2NaYBr6
5.0774,Cl-Cs-Na-Y,4,Cs2NaYCl6
6.863900000000001,Cs-F-Na-Y,4,Cs2NaYF6
3.1517,Cs-I-Na-Y,4,Cs2NaYI6
0.0,Ag-Cs-F-Nb,4,Cs2NbAgF6
0.1377000000000001,Au-Cs-F-Nb,4,Cs2NbAuF6
0.0,Cs-Cu-F-Nb,4,Cs2NbCuF6
0.2477999999999998,Cs-F-Nb,3,Cs2NbF6
0.0,Cs-F-Nb-Tl,4,Cs2NbTlF6
3.3798,Ag-Br-Cs-Nd,4,Cs2NdAgBr6
3.8207,Ag-Cl-Cs-Nd,4,Cs2NdAgCl6
3.3086,Ag-Cs-F-Nd,4,Cs2NdAgF6
2.5429,Ag-Cs-I-Nd,4,Cs2NdAgI6
2.2148,Au-Cl-Cs-Nd,4,Cs2NdAuCl6
2.2431,Br-Cs-Cu-Nd,4,Cs2NdCuBr6
1.7889,Cs-Cu-I-Nd,4,Cs2NdCuI6
0.8843000000000001,Cs-Ni-S,3,Cs2Ni3S4
0.9065999999999996,Cs-Ni-S,3,Cs2Ni3S4
0.6160000000000001,Cs-Ni-Se,3,Cs2Ni3Se4
0.5567000000000002,As-Cs-Ni,3,Cs2NiAs2
2.4357,Cs-F-Ni,3,Cs2NiF6
2.6343,Cs-Ni-O,3,Cs2NiO2
0.0910999999999999,Br-Cs-Np,3,Cs2NpBr6
0.0,Cs-Np-O,3,Cs2NpO3
0.2765000000000004,Cs-Np-O,3,Cs2NpO4
0.2681999999999997,Cs-O,2,Cs2O
1.6506000000000003,Cs-O,2,Cs2O
0.5831999999999997,Cs-O,2,Cs2O
0.0,Cs-O,2,Cs2O2
1.6496,Cs-O,2,Cs2O2
0.0,Cs-O,2,Cs2O3
0.0,Br-Cl-Cs-F-Os,5,Cs2OsBrClF4
5.2113,Cs-H-O-P,4,Cs2P2H2O7
1.0475,Cs-P-Pd,3,Cs2P2Pd
0.8470999999999997,Cs-P,2,Cs2P3
4.0373,Cs-F-Pa,3,Cs2PaF7
2.0761000000000003,Cs-O-Pb,3,Cs2Pb2O3
0.5108,Br-Cs-Pb,3,Cs2PbBr6
1.4541,Cl-Cs-Pb,3,Cs2PbCl6
0.0989999999999999,Cl-Cs-F-Pb,4,Cs2PbClF6
1.3724,Cs-O-Pb,3,Cs2PbO3
1.3911,Cs-O-Pb,3,Cs2PbO3
0.7401,Br-Cs-I-Pd,4,Cs2Pd(IBr2)2
0.7455,Br-Cs-I-Pd,4,Cs2Pd(IBr2)2
0.9218,Cl-Cs-I-Pd,4,Cs2Pd(ICl2)2
1.3815,Cs-Pd-S,3,Cs2Pd3S4
0.9867,Cs-Pd-Se,3,Cs2Pd3Se4
0.756,Br-Cs-Pd,3,Cs2PdBr6
1.7513999999999998,C-Cs-Pd,3,Cs2PdC2
1.839,Cl-Cs-Pd,3,Cs2PdCl4
1.3617,Cl-Cs-Pd,3,Cs2PdCl6
2.3065,Cs-F-Pd,3,Cs2PdF6
0.6286000000000003,Cs-I-Pd,3,Cs2PdI6
0.0448999999999999,Cs-I-Pd,3,Cs2PdI6
3.826,Ag-Cl-Cs-Pr,4,Cs2PrAgCl6
3.2577,Ag-Cs-F-Pr,4,Cs2PrAgF6
2.5343,Ag-Cs-I-Pr,4,Cs2PrAgI6
1.9281,Au-Cl-Cs-Pr,4,Cs2PrAuCl6
2.1974,Br-Cs-Cu-Pr,4,Cs2PrCuBr6
2.3465000000000003,Cl-Cs-Cu-Pr,4,Cs2PrCuCl6
1.7763999999999998,Cs-Cu-I-Pr,4,Cs2PrCuI6
0.0,Cs-F-Pr,3,Cs2PrF6
0.0,Cs-O-Pr,3,Cs2PrO3
1.6743,Cs-Pt,2,Cs2Pt
1.6386000000000005,Cs-Pt-S,3,Cs2Pt3S4
1.3326000000000002,Cs-Pt-Se,3,Cs2Pt3Se4
1.4417,Br-Cs-Pt,3,Cs2PtBr6
1.2698,C-Cs-Pt,3,Cs2PtC2
2.4863,C-Cs-F-O-Pt,5,Cs2PtC2(OF)4
2.1146,Cl-Cs-Pt,3,Cs2PtCl6
2.6933,Cs-F-Pt,3,Cs2PtF6
2.814,Cs-F-Pt,3,Cs2PtF6
0.6550999999999998,Cs-I-Pt,3,Cs2PtI6
0.0659,Cl-Cs-O-Pu,4,Cs2Pu(Cl2O)2
0.0305999999999999,Cl-Cs-O-Pu,4,Cs2Pu(Cl2O)2
0.365,Cl-Cs-Pu,3,Cs2PuCl6
0.0,Cs-O-Pu,3,Cs2PuO4
3.2433,Al-Br-Cs-Rb,4,Cs2RbAlBr6
4.6551,Al-Cl-Cs-Rb,4,Cs2RbAlCl6
8.3194,Al-Cs-F-Rb,4,Cs2RbAlF6
1.8835,Al-Cs-I-Rb,4,Cs2RbAlI6
2.8942,As-Br-Cs-Rb,4,Cs2RbAsBr6
3.4685,As-Cl-Cs-Rb,4,Cs2RbAsCl6
4.5627,As-Cs-F-Rb,4,Cs2RbAsF6
0.0207999999999999,Au-Br-Cs-Rb,4,Cs2RbAuBr6
0.1911,Au-Cl-Cs-Rb,4,Cs2RbAuCl6
0.7939,Au-Cs-F-Rb,4,Cs2RbAuF6
3.4129,Bi-Br-Cs-Rb,4,Cs2RbBiBr6
4.131600000000001,Bi-Cl-Cs-Rb,4,Cs2RbBiCl6
4.7749,Bi-Cs-F-Rb,4,Cs2RbBiF6
4.1198,Ce-Cl-Cs-Rb,4,Cs2RbCeCl6
0.8744000000000001,Cs-Cu-F-Rb,4,Cs2RbCuF6
5.059200000000001,Cl-Cs-Dy-Rb,4,Cs2RbDyCl6
5.067,Cl-Cs-Er-Rb,4,Cs2RbErCl6
0.0,Cl-Cs-Eu-Rb,4,Cs2RbEuCl6
4.1178,Cs-F-Fe-Rb,4,Cs2RbFeF6
2.1605,Br-Cs-Ga-Rb,4,Cs2RbGaBr6
3.4534,Cl-Cs-Ga-Rb,4,Cs2RbGaCl6
5.9411000000000005,Cs-F-Ga-Rb,4,Cs2RbGaF6
3.2357,Cl-Cs-Gd-Rb,4,Cs2RbGdCl6
2.5058,Br-Cs-In-Rb,4,Cs2RbInBr6
3.6668,Cl-Cs-In-Rb,4,Cs2RbInCl6
5.3728,Cs-F-In-Rb,4,Cs2RbInF6
2.5113,Cs-F-Ir-Rb,4,Cs2RbIrF6
4.4819,Cl-Cs-La-Rb,4,Cs2RbLaCl6
5.0606,Cl-Cs-Lu-Rb,4,Cs2RbLuCl6
2.9581,Cs-F-N-Rb,4,Cs2RbNF6
0.0,Cs-F-Nb-Rb,4,Cs2RbNbF6
4.8574,Cl-Cs-Nd-Rb,4,Cs2RbNdCl6
0.0,Cs-F-Pb-Rb,4,Cs2RbPbF6
0.0,Cs-F-Pd-Rb,4,Cs2RbPdF6
0.5693,Cs-F-Pd-Rb,4,Cs2RbPdF6
4.8296,Cl-Cs-Pr-Rb,4,Cs2RbPrCl6
0.0,Cs-F-Rb-Ru,4,Cs2RbRuF6
2.841,Br-Cs-Rb-Sb,4,Cs2RbSbBr6
3.4707,Cl-Cs-Rb-Sb,4,Cs2RbSbCl6
4.0614,Cs-F-Rb-Sb,4,Cs2RbSbF6
3.2725,Br-Cs-Rb-Sc,4,Cs2RbScBr6
4.0707,Cl-Cs-Rb-Sc,4,Cs2RbScCl6
6.6555,Cs-F-Rb-Sc,4,Cs2RbScF6
5.5149,Cs-F-Rb-Si,4,Cs2RbSiF7
4.8937,Cl-Cs-Rb-Sm,4,Cs2RbSmCl6
0.0,Cs-F-Rb-Ta,4,Cs2RbTaF6
4.923299999999999,Cl-Cs-Rb-Tb,4,Cs2RbTbCl6
1.5133,Br-Cs-Rb-Tl,4,Cs2RbTlBr6
2.4689,Cl-Cs-Rb-Tl,4,Cs2RbTlCl6
3.7422,Cs-F-Rb-Tl,4,Cs2RbTlF6
5.0734,Cl-Cs-Rb-Tm,4,Cs2RbTmCl6
4.1715,Br-Cs-Rb-Y,4,Cs2RbYBr6
4.9337,Cl-Cs-Rb-Y,4,Cs2RbYCl6
6.1978,Cs-F-Rb-Y,4,Cs2RbYF6
4.7098,Cs-F-O-Rb-Zr,5,Cs2RbZrOF5
1.2397,Cl-Cs-Re,3,Cs2ReCl6
1.8006000000000002,Cs-F-Re,3,Cs2ReF6
0.6011000000000001,Au-Cs-F-Rh,4,Cs2RhAuF6
0.0,Cs-F-Rh,3,Cs2RhF6
0.0,Au-Cs-F-Ru,4,Cs2RuAuF6
2.0948,Cs-S,2,Cs2S
2.0952,Cs-S,2,Cs2S
1.3635,Cs-S,2,Cs2S3
0.0,Br-Cl-Cs-S,4,Cs2SBrCl6
0.0,Cl-Cs-F-S,4,Cs2SCl6F
0.8965999999999998,Cs-Pd-Sb,3,Cs2Sb2Pd
0.7406999999999999,Cs-Pt-Sb,3,Cs2Sb2Pt
0.2823,Au-Br-Cs-Sb,4,Cs2SbAuBr6
0.4038999999999997,Au-Cl-Cs-Sb,4,Cs2SbAuCl6
0.8002,Au-Cs-F-Sb,4,Cs2SbAuF6
0.0,Au-Cs-I-Sb,4,Cs2SbAuI6
0.0,Br-Cs-Sb,3,Cs2SbBr6
4.7187,Cs-F-Sb,3,Cs2SbF5
2.8546,Ag-Br-Cs-Sc,4,Cs2ScAgBr6
3.3916,Ag-Cl-Cs-Sc,4,Cs2ScAgCl6
3.6511,Ag-Cs-F-Sc,4,Cs2ScAgF6
2.0571,Ag-Cs-I-Sc,4,Cs2ScAgI6
1.7173,Au-Br-Cs-Sc,4,Cs2ScAuBr6
2.0233,Au-Cl-Cs-Sc,4,Cs2ScAuCl6
1.8594,Au-Cs-F-Sc,4,Cs2ScAuF6
1.0839,Au-Cs-I-Sc,4,Cs2ScAuI6
1.9388,Cl-Cs-Cu-Sc,4,Cs2ScCuCl6
1.8308,Cs-Cu-F-Sc,4,Cs2ScCuF6
0.0,Br-Cs-Hg-Sc,4,Cs2ScHgBr6
0.0,Cl-Cs-Hg-Sc,4,Cs2ScHgCl6
0.0,Cs-F-Hg-Sc,4,Cs2ScHgF6
0.0,Cs-Hg-I-Sc,4,Cs2ScHgI6
2.2014,Br-Cs-In-Sc,4,Cs2ScInBr6
2.8043,Cl-Cs-In-Sc,4,Cs2ScInCl6
4.142200000000001,Cs-F-In-Sc,4,Cs2ScInF6
1.9468,Cs-I-In-Sc,4,Cs2ScInI6
3.1371,Br-Cs-Sc-Tl,4,Cs2ScTlBr6
3.5792,Cl-Cs-Sc-Tl,4,Cs2ScTlCl6
5.2805,Cs-F-Sc-Tl,4,Cs2ScTlF6
2.4146,Cs-I-Sc-Tl,4,Cs2ScTlI6
1.7952,Cs-Se,2,Cs2Se
0.6132,Cs-Se,2,Cs2Se
0.0,Cs-Se,2,Cs2Se
1.8269,Cs-Se,2,Cs2Se
1.5913,Cs-Se,2,Cs2Se
1.6603,Cs-Se,2,Cs2Se
1.5571,Cs-Se,2,Cs2Se
1.2841,Cs-Se,2,Cs2Se
1.7441,Cs-Se,2,Cs2Se
0.7396,Cs-Se,2,Cs2Se3
2.7509,Cl-Cs-Se,3,Cs2SeCl6
0.0,Cl-Cs-F-Se,4,Cs2SeClF6
3.7654,Cs-H-O-Si,4,Cs2Si(HO2)2
3.8832,Cs-H-O-Si,4,Cs2Si(HO2)2
1.0347,As-Cs-Si,3,Cs2SiAs2
4.8121,B-Cs-O-Si,4,Cs2SiB4O9
6.8901,Cs-F-Si,3,Cs2SiF6
1.2699000000000005,Cs-P-Si,3,Cs2SiP2
2.9485,Cs-S-Si,3,Cs2SiS3
3.8478,Ag-Cl-Cs-Sm,4,Cs2SmAgCl6
2.23,Au-Cl-Cs-Sm,4,Cs2SmAuCl6
2.57,Cl-Cs-Cu-Sm,4,Cs2SmCuCl6
2.5332,Cs-H-N-Sn,4,Cs2Sn(H2N)6
2.5642,Cs-H-O-Sn,4,Cs2Sn(HO2)6
1.6243,Cs-Hg-S-Sn,4,Cs2Sn2Hg3S8
0.7669000000000001,As-Cs-Sn,3,Cs2SnAs2
1.4388999999999998,Br-Cs-Sn,3,Cs2SnBr6
2.59,Cl-Cs-Sn,3,Cs2SnCl6
5.3369,Cs-F-Sn,3,Cs2SnF6
0.2937999999999998,Cs-I-Sn,3,Cs2SnI6
2.386,Cs-O-Sn,3,Cs2SnO3
1.7235999999999998,Cs-Se-Sn,3,Cs2SnSe3
2.1334,Cs-O-Sr,3,Cs2Sr2O3
4.8535,Cs-O-P-Sr,4,Cs2SrP2O7
2.6812,Cs-O-Sr-V,4,Cs2SrV4O12
0.0,Ag-Br-Cs-Ta,4,Cs2TaAgBr6
0.0,Ag-Cl-Cs-Ta,4,Cs2TaAgCl6
0.2824,Ag-Cs-F-Ta,4,Cs2TaAgF6
0.0,Ag-Cs-I-Ta,4,Cs2TaAgI6
1.1619,Au-Cs-F-Ta,4,Cs2TaAuF6
0.0,Cl-Cs-Ta,3,Cs2TaCl6
0.0,Br-Cs-Cu-Ta,4,Cs2TaCuBr6
0.0,Cl-Cs-Cu-Ta,4,Cs2TaCuCl6
0.4107999999999998,Cs-Cu-F-Ta,4,Cs2TaCuF6
0.0,Cs-Cu-I-Ta,4,Cs2TaCuI6
0.0,Cs-F-Hg-Ta,4,Cs2TaHgF6
0.0,Cs-S-Ta,3,Cs2TaS6
0.0,Cs-F-Ta-Tl,4,Cs2TaTlF6
3.8151,Ag-Cl-Cs-Tb,4,Cs2TbAgCl6
2.181,Au-Cl-Cs-Tb,4,Cs2TbAuCl6
2.5342,Cl-Cs-Cu-Tb,4,Cs2TbCuCl6
0.0,Cs-O-Tb,3,Cs2TbO3
0.0,Cs-O-Tc,3,Cs2Tc2O5
1.2924,Cl-Cs-Tc,3,Cs2TcCl6
1.8113,Cs-F-Tc,3,Cs2TcF6
0.6815,Cs-I-Tc,3,Cs2TcI6
0.5258000000000003,Cs-Te,2,Cs2Te3
2.1121,Br-Cs-Te,3,Cs2TeBr6
2.7815000000000003,Cl-Cs-Te,3,Cs2TeCl6
1.3877,Cs-I-Te,3,Cs2TeI6
3.5352,Cs-O-Te,3,Cs2TeO3
5.0319,Cs-F-O-Te,4,Cs2TeOF4
4.6873000000000005,Cl-Cs-Th,3,Cs2ThCl6
2.9569,Cs-Ge-O-Ti,4,Cs2Ti(GeO3)3
2.8344,Cs-O-Ti-W,4,Cs2Ti(WO4)3
3.0106,Cs-O-Ti,3,Cs2Ti4O9
2.2291,Cl-Cs-Ti,3,Cs2TiCl6
0.8643000000000001,Cs-I-Ti,3,Cs2TiI6
3.3373,Cs-O-Ti,3,Cs2TiO3
0.0445999999999999,Cs-F-O-Ti,4,Cs2TiOF5
1.2724000000000002,Cs-S-Ti,3,Cs2TiS3
0.0,Ag-Br-Cs-Tl,4,Cs2TlAgBr6
0.0,Ag-Cl-Cs-Tl,4,Cs2TlAgCl6
0.8052999999999999,Ag-Cs-F-Tl,4,Cs2TlAgF6
0.0,Ag-Cs-I-Tl,4,Cs2TlAgI6
1.305,As-Br-Cs-Tl,4,Cs2TlAsBr6
2.0627,As-Cl-Cs-Tl,4,Cs2TlAsCl6
2.9734,As-Cs-F-Tl,4,Cs2TlAsF6
1.0046000000000002,As-Cs-I-Tl,4,Cs2TlAsI6
0.0,Au-Br-Cs-Tl,4,Cs2TlAuBr6