eg,chemsys,nelements,formula
1.6794000000000002,Cu-Dy-Mg-O-W,5,DyMgCu(WO4)2
1.7325,Cu-Dy-Mg-O-W,5,DyMgCu(WO4)2
0.0,Dy-Ga-Mg,3,DyMgGa
0.0,Dy-Hg-Mg,3,DyMgHg2
0.0,Dy-In-Mg,3,DyMgIn
0.0,Dy-Mg-Mn-O,4,DyMgMn2O4
0.0,Dy-Mg-Mn-S,4,DyMgMnS4
0.0,Dy-Mg-Mo-S,4,DyMgMoS4
0.0,Dy-Mg-Pd,3,DyMgPd
0.0,Dy-Mg-Rh,3,DyMgRh2
0.2098999999999997,Dy-Mg-S,3,DyMgS3
0.0,Dy-Mg-Se,3,DyMgSe3
0.0,Dy-Mg-Sn,3,DyMgSn
0.0,Dy-Mg-S-Ti,4,DyMgTiS4
0.0,Dy-Mg-Tl,3,DyMgTl
0.0,Dy-Mg-Tl,3,DyMgTl2
0.0,Dy-Mg-S-V,4,DyMgVS4
0.0,Dy-Mg-S-W,4,DyMgWS4
0.0,Dy-Mg-Zn,3,DyMgZn2
0.0,Dy-Mn,2,DyMn12
0.0,Dy-Mn,2,DyMn2
0.0,Cr-Dy-Ge-Mn,4,DyMn2(Cr2Ge3)2
0.0,Dy-Mn-O,3,DyMn2O4
0.7557,Dy-Mn-O,3,DyMn2O5
0.0,C-Dy-Mn-Si,4,DyMn2SiC
0.0,Dy-Ge-Mn-Si,4,DyMn2SiGe
0.0,Cr-Dy-Ge-Mn,4,DyMn4(CrGe3)2
0.0,Cu-Dy-Mn-O,4,DyMn4(CuO4)3
0.0,Dy-Ge-Mn-Sn,4,DyMn6(Sn2Ge)2
0.0,Dy-Ga-Ge-Mn,4,DyMn6GaGe5
0.0,Al-Dy-Mn,3,DyMnAl
0.0,B-Dy-Mn,3,DyMnB4
0.0563000000000002,Cr-Dy-Mn-O,4,DyMnCrO5
0.0,Dy-Fe-Mn,3,DyMnFe
1.146,Dy-Fe-Mn-O,4,DyMnFeO5
0.0,Dy-Ga-Mn,3,DyMnGa
0.0,Dy-Ge-Mn,3,DyMnGe
1.0173,Dy-Mn-O,3,DyMnO3
0.4133999999999997,Dy-Mn-O,3,DyMnO3
0.0,Dy-Mn-O,3,DyMnO3
0.0,Dy-Mn-Si,3,DyMnSi
0.0,C-Dy-Mo,3,DyMoC2
2.7283000000000004,Cl-Dy-Mo-O,4,DyMoClO4
3.7538,Dy-F-Mo-O,4,DyMoO4F
2.352,Dy-Mo-O,3,DyMoO5
0.0430999999999994,Dy-N,2,DyN
0.2435,Dy-N-O,3,DyN3O10
3.6484,Dy-Nb-O,3,DyNbO4
2.3592,Dy-Nb-O,3,DyNbO4
3.2613,Dy-Nb-O,3,DyNbO4
3.6435,Dy-Nb-O,3,DyNbO4
3.4902,Dy-Nb-O,3,DyNbO4
3.2509,Dy-Nb-O,3,DyNbO4
3.9158,Dy-Nb-O,3,DyNbO4
0.0,Dy-Nb-Ru,3,DyNbRu2
0.0,Dy-Ni,2,DyNi
0.0,Dy-Ni,2,DyNi2
0.0,B-C-Dy-Ni,4,DyNi2B2C
0.0,Dy-Ni,2,DyNi3
0.0,Dy-Ni-Sn,3,DyNi3Sn2
0.0,Au-Dy-Ni,3,DyNi4Au
0.0,B-Dy-Ni,3,DyNi4B
0.0,Dy-Ni-Sn,3,DyNi4Sn
0.0,Dy-Ni,2,DyNi5
0.0,As-Dy-Ni,3,DyNiAs
0.0,B-Dy-Ni,3,DyNiB4
0.2084000000000001,Bi-Dy-Ni,3,DyNiBi
0.0,C-Dy-Ni,3,DyNiC2
0.0,Dy-Ge-Ni,3,DyNiGe
0.0,Dy-Ge-Ni,3,DyNiGe2
0.0,Dy-Ge-Ni,3,DyNiGe3
0.0,Dy-Ni-O,3,DyNiO3
0.0,Dy-Ni-P,3,DyNiP
0.3123000000000004,Dy-Ni-Sb,3,DyNiSb
0.0,Dy-Ni-Sb,3,DyNiSb2
0.0,Dy-Ni-Sn,3,DyNiSn
0.0,Dy-Ni-Sn,3,DyNiSn4
0.0,Dy-Np,2,DyNp3
0.0,Dy-Np-Ru,3,DyNpRu2
0.0,Dy-O,2,DyO2
0.0,Dy-O,2,DyO3
5.020200000000001,Dy-F-O,3,DyOF
0.0,Dy-Os,2,DyOs2
0.0,Dy-Os,2,DyOs3
0.0,Dy-P,2,DyP
5.614400000000001,Dy-H-O-P,4,DyP2(HO2)5
5.3411,Dy-H-O-P,4,DyP3(HO)6
1.3218,Dy-H-O-P,4,DyP3H5O6
0.0937000000000001,Dy-P,2,DyP5
5.8933,Dy-O-P,3,DyPO4
0.0,Dy-P-Pd,3,DyPPd
0.0,Dy-P-Pt,3,DyPPt
0.0,C-Dy-P-Ru,4,DyPRu2C
0.3391000000000002,Dy-P-S,3,DyPS
0.0,Dy-Pa,2,DyPa
0.0,Dy-Pa,2,DyPa3
0.0,Dy-O-Pa,3,DyPaO3
2.4003999999999994,Dy-O-Pa,3,DyPaO4
0.0,Dy-Pa-Ru,3,DyPaRu2
0.0,Dy-Pa-Tc,3,DyPaTc2
0.0,Dy-Pb,2,DyPb3
0.0,Au-Dy-Pb,3,DyPbAu
0.0,Dy-Pd,2,DyPd
0.0,Dy-Pd,2,DyPd2
0.0,Dy-Pb-Pd,3,DyPd2Pb
0.0,Dy-Pd,2,DyPd3
0.0,Dy-Pb-Pd,3,DyPdPb
0.0,Dy-Pt,2,DyPt
0.0,Dy-Pt,2,DyPt2
0.0,Dy-Pt,2,DyPt3
0.0,Dy-Pu,2,DyPu3
0.0,Dy-Re,2,DyRe2
0.0,C-Dy-Re-Si,4,DyRe2SiC
0.0,B-Dy-Re,3,DyReB4
0.0,Dy-Rh,2,DyRh
0.0,Dy-Rh,2,DyRh2
0.0,Dy-Pb-Rh,3,DyRh2Pb
0.0,C-Dy-Rh,3,DyRh3C
0.0,Dy-Rh,2,DyRh5
0.0,Dy-O-Rh,3,DyRhO3
0.8883000000000001,Dy-O-Rh,3,DyRhO3
0.0,Dy-Ru,2,DyRu2
0.0,Dy-Ru,2,DyRu3
0.0,C-Dy-Ru,3,DyRu3C
0.0,Dy-S,2,DyS
0.0,Dy-S,2,DyS2
2.8776,Br-Dy-S,3,DySBr
2.7618000000000005,Cl-Dy-S,3,DySCl
2.7811,Dy-I-S,3,DySI
0.0,Dy-Sb,2,DySb
0.0,Dy-Sb,2,DySb2
0.0,Dy-Sb,2,DySb3
0.0,Dy-Ir-Sb,3,DySbIr
0.0,Dy-O-Sb,3,DySbO3
2.3553,Dy-O-Sb,3,DySbO4
2.3042,Dy-O-Sb,3,DySbO4
0.0,Dy-Pd-Sb,3,DySbPd
0.2298999999999997,Dy-Pd-Sb,3,DySbPd
0.0492999999999996,Dy-Pt-Sb,3,DySbPt
0.0,Dy-Rh-Sb,3,DySbRh
0.0,Dy-Rh-Sb,3,DySbRh2
0.8479000000000001,Dy-Sb-Te,3,DySbTe3
4.4598,Dy-O-Sc,3,DyScO3
0.0,Dy-Ru-Sc,3,DyScRu2
1.7736999999999994,Dy-S-Sc,3,DyScS3
0.0,Dy-Sb-Sc,3,DyScSb
0.0,Dy-Sc-Si,3,DyScSi
0.0,Dy-Sc-Zn,3,DyScZn2
0.0,Dy-Se,2,DySe
0.0,Dy-Se,2,DySe2
4.366899999999999,Cl-Dy-O-Se,4,DySeClO3
0.0,Dy-Si,2,DySi
0.0,Dy-Si,2,DySi2
0.0,Dy-Ni-Si,3,DySi2Ni
0.0,Dy-Rh-Si,3,DySi2Rh3
0.0,Dy-Ir-Si,3,DySi3Ir
0.0,Dy-Ni-Si,3,DySi3Ni5
0.0,Ag-Dy-Si,3,DySiAg
0.0,Dy-Ir-Si,3,DySiIr
0.0,Dy-Ni-Si,3,DySiNi
0.0,Dy-Ni-Si,3,DySiNi4
0.0,C-Dy-Os-Si,4,DySiOs2C
0.0,Dy-Pd-Si,3,DySiPd2
0.0,Dy-Pt-Si,3,DySiPt
0.0,Dy-Pt-Si,3,DySiPt2
0.0,Dy-Rh-Si,3,DySiRh
0.0,Dy-Ru-Si,3,DySiRu
0.0,C-Dy-Ru-Si,4,DySiRu2C
0.0,Dy-Sn,2,DySn2
0.0,Dy-Sn,2,DySn3
0.0,Au-Dy-Sn,3,DySnAu
0.0,Au-Dy-Sn,3,DySnAu2
0.0,Dy-Ge-Sn,3,DySnGe
0.0,Dy-O-Sn,3,DySnO3
0.0,Dy-Pd-Sn,3,DySnPd
0.0,Dy-Pd-Sn,3,DySnPd2
0.0,Dy-Pt-Sn,3,DySnPt
0.0,Dy-Rh-Sn,3,DySnRh
0.0,Dy-Rh-Sn,3,DySnRh2
0.0,Dy-Ru-Sn,3,DySnRu2
0.0,Dy-Ta,2,DyTa3
4.1282,Dy-O-Ta,3,DyTaO4
4.0284,Dy-O-Ta,3,DyTaO4
0.0,Dy-Os-Ta,3,DyTaOs2
0.0,Dy-Ru-Ta,3,DyTaRu2
0.0,Dy-Tc,2,DyTc2
0.0,Dy-Te,2,DyTe
0.0,Dy-Te,2,DyTe2
0.0,Dy-Te,2,DyTe3
0.0,Dy-O-Te,3,DyTe3O8
0.3292000000000001,As-Dy-Te,3,DyTeAs
0.0,Dy-Th,2,DyTh
0.0,Dy-Th,2,DyTh2
0.0,Dy-Th,2,DyTh3
0.0,C-Dy-N-Th,4,DyThCN
0.0,Dy-Fe-Th,3,DyThFe6
0.0,Dy-N-Th,3,DyThN2
0.0,Dy-Re-Th,3,DyThRe4
0.0,Dy-Ru-Th,3,DyThRu2
0.0,Dy-Tc-Th,3,DyThTc2
3.1574,Cl-Dy-O-Ti,4,DyTiClO3
0.0,Co-Dy-Ti,3,DyTiCo11
0.0,Dy-Fe-Ti,3,DyTiFe11
0.0,C-Dy-Fe-Ti,4,DyTiFe11C
0.0,Dy-Fe-N-Ti,4,DyTiFe11N
0.0,Co-Dy-Fe-Ti,4,DyTiFe5Co6
0.0,Dy-Ge-Ti,3,DyTiGe
0.0,Dy-O-Ti,3,DyTiO3
0.0,Dy-Si-Ti,3,DyTiSi
0.0,Dy-Tl,2,DyTl
2.9171,Dy-O-Tl-W,4,DyTl(WO4)2
1.1655000000000002,Dy-In-S-Tl,4,DyTl2InS4
0.0,Dy-Tl,2,DyTl3
0.0,Cu-Dy-Tl,3,DyTlCu
1.4823999999999995,Dy-O-Tl,3,DyTlO2
0.0,Dy-Pd-Tl,3,DyTlPd
0.0,Dy-Rh-Tl,3,DyTlRh2
1.5281999999999996,Dy-S-Tl,3,DyTlS2
1.2524999999999995,Dy-Se-Tl,3,DyTlSe2
0.7156000000000002,Dy-Te-Tl,3,DyTlTe2
0.0,Dy-Tl-Zn,3,DyTlZn
0.0,Dy-Tm,2,DyTm3
0.0,Ag-Dy-Tm,3,DyTmAg2
0.0,Cd-Dy-Tm,3,DyTmCd2
0.0,Cu-Dy-Tm,3,DyTmCu2
0.0,Dy-Hg-Tm,3,DyTmHg2
0.0,Dy-In-Tm,3,DyTmIn2
0.0,Dy-Ir-Tm,3,DyTmIr2
0.0,Dy-Mg-Tm,3,DyTmMg2
0.0,Dy-Mn-Tm,3,DyTmMn4
4.5265,Dy-O-Tm,3,DyTmO3
0.0,Dy-Rh-Tm,3,DyTmRh2
0.0,Dy-Ru-Tm,3,DyTmRu2
0.0,Dy-O-S-U,4,DyU2S3O2
0.0,Dy-U,2,DyU3
0.0,Al-Dy-U,3,DyUAl4
0.0,Dy-N-U,3,DyUN2
0.0,Dy-Te-U,3,DyUTe4
0.0,Dy-Te-U,3,DyUTe6
0.0,Co-Dy-Fe-V,4,DyV2(FeCo)5
0.0,Dy-Fe-N-V,4,DyV2Fe10N
0.0,B-Dy-V,3,DyVB4
0.0,Dy-O-V,3,DyVO2
1.3773,Dy-O-V,3,DyVO3
2.7788000000000004,Dy-O-V,3,DyVO4
2.9764,Dy-O-V,3,DyVO4
0.0,Dy-Sb-V,3,DyVSb3
0.0,C-Dy-W,3,DyWC2
3.4164,Cl-Dy-O-W,4,DyWClO4
1.9468,Dy-O-W,3,DyWO4
2.1716,Dy-O-W,3,DyWO4
0.0,Dy-O-W,3,DyWO5
1.5887000000000002,Dy-Fe-O-Y,4,DyY(FeO3)2
0.0,Dy-Y,2,DyY3
0.0,Ag-Dy-Y,3,DyYAg2
0.0,Al-Dy-Y,3,DyYAl2
0.0,C-Dy-Y,3,DyYC4
0.0,Cd-Dy-Y,3,DyYCd2
0.0,Cu-Dy-Y,3,DyYCu2
0.0,Dy-Fe-Y,3,DyYFe4
0.0,Dy-Hg-Y,3,DyYHg2
0.0,Dy-In-Y,3,DyYIn2
0.0,Dy-Ir-Y,3,DyYIr2
0.0,Dy-Mg-Y,3,DyYMg2
0.5779000000000001,Dy-Mn-O-Y,4,DyYMn2O6
3.028,Dy-O-Y,3,DyYO3
0.0,Dy-Rh-Y,3,DyYRh2
0.0,Dy-Tl-Y,3,DyYTl2
0.0,Dy-Y-Zn,3,DyYZn2
0.0,Dy-Zn,2,DyZn
0.0,Dy-Zn,2,DyZn12
0.0,Dy-Zn,2,DyZn2
0.0,Dy-Zn,2,DyZn3
0.0,Dy-Zn,2,DyZn5
0.0363999999999995,As-Cu-Dy-Zn,4,DyZnCuAs2
0.0,Dy-Ga-Zn,3,DyZnGa
0.0,Dy-In-Zn,3,DyZnIn
0.0,Dy-Ni-Zn,3,DyZnNi
1.2613000000000003,Dy-O-P-Zn,4,DyZnPO
0.0,Dy-Pd-Zn,3,DyZnPd
0.0,Dy-Rh-Zn,3,DyZnRh
0.0,Dy-Rh-Zn,3,DyZnRh2
0.0,Dy-Si-Zn,3,DyZnSi
0.0,Dy-Sn-Zn,3,DyZnSn
0.0,Dy-Zr,2,DyZr
0.0,Dy-O-Zr,3,DyZr4O9
5.9275,Dy-F-Zr,3,DyZrF7
0.0,Dy-Ru-Zr,3,DyZrRu2
0.0,Dy-Sb-Zr,3,DyZrSb
0.0,Er,1,Er
0.0,Al-Cr-Er,3,Er(Al2Cr)4
0.0,Al-Cu-Er,3,Er(Al2Cu)4
0.0,Al-Er-Fe,3,Er(Al2Fe)4
0.0,Al-Er-Mo,3,Er(Al2Mo)2
0.0,Al-Er-Ni,3,Er(Al3Ni)3
0.0,Al-Er-Fe,3,Er(Al5Fe)2
0.0,Al-Er-Ru,3,Er(Al5Ru)2
0.0260999999999995,Al-C-Er,3,Er(AlC)3
0.0,Al-Cr-Er,3,Er(AlCr)6
0.0,Al-Cu-Er,3,Er(AlCu)6
0.0,Al-Er-Fe,3,Er(AlFe)6
0.0,Al-Er-Fe,3,Er(AlFe2)4
0.0,Al-Er-Ge,3,Er(AlGe)2
0.0,Al-Er-Si,3,Er(AlSi)2
0.0,B-C-Er,3,Er(BC)2
0.0,B-Er-Ir,3,Er(BIr)4
0.0,B-Er-Rh,3,Er(BRh)4
0.0,B-Er-Ru,3,Er(BRu)4
2.0482,Bi-Er-O,3,Er(BiO2)3
0.3169999999999999,C-Er-O,3,Er(CO3)2
1.5594,Cl-Er-O,3,Er(ClO2)3
0.0,Cl-Er-O,3,Er(ClO2)3
5.0285,Cl-Er-O,3,Er(ClO4)3
0.0,B-Co-Er,3,Er(Co2B)6
0.0,Co-Er-Ge,3,Er(Co2Ge)2
0.0,Co-Er-Mo,3,Er(Co5Mo)2
0.0,B-Co-Er,3,Er(CoB)2
0.0,B-Co-Er,3,Er(CoB)4
0.0,Co-Er-Ge,3,Er(CoGe)2
0.0,Co-Er-Ge,3,Er(CoGe)6
0.0,Co-Er-Si,3,Er(CoSi)2
0.0,Cr-Er-Fe,3,Er(CrFe5)2
0.0,Cr-Er-Ge,3,Er(CrGe)6
0.0,Cr-Er-Si,3,Er(CrSi)2
0.0,Cu-Er-Ge,3,Er(CuGe)2
0.0,Cu-Er-O,3,Er(CuO2)2
1.4455999999999998,Cu-Er-S,3,Er(CuS)3
1.2572,Cu-Er-S,3,Er(CuS)3
0.0,Cu-Er-Si,3,Er(CuSi)2
0.827,Cu-Er-Te,3,Er(CuTe)3
0.0,Er-Fe-Ge,3,Er(Fe2Ge)2
0.0,Er-Fe-Mo,3,Er(Fe5Mo)2
0.0,Er-Fe-Re,3,Er(Fe5Re)2
0.0,Er-Fe-Si,3,Er(Fe5Si)2
0.0,B-Er-Fe,3,Er(FeB)2
0.0,Er-Fe-Ge,3,Er(FeGe)2
0.0,Er-Fe-Ge,3,Er(FeGe)6
0.0,Er-Fe-O,3,Er(FeO2)2
0.0,Er-Fe-Si,3,Er(FeSi)2
0.0,Co-Er-Ga,3,Er(GaCo)6
0.0,Er-Fe-Ga,3,Er(GaFe)6
0.0,Er-Ge-Rh,3,Er(GeRh)2
0.0,Er-Ge-Ru,3,Er(GeRu)2
3.7326,Er-H-O,3,Er(HO)3
0.0,Al-Er-Mn,3,Er(MnAl)6
0.0,Al-Er-Mn,3,Er(MnAl2)4
0.0,Er-Ga-Mn,3,Er(MnGa)6
0.0,Er-Ge-Mn,3,Er(MnGe)2
0.0,Er-Ge-Mn,3,Er(MnGe)6
0.0,Er-Mn-Si,3,Er(MnSi)2
0.0,Er-Mn-Sn,3,Er(MnSn)6
0.0,Er-Mo-S,3,Er(Mo3S4)2
0.0,Er-Mo-Se,3,Er(Mo3Se4)2
0.0,As-Er-Ni,3,Er(Ni2As)2
0.0,Er-Ni-P,3,Er(Ni2P)2
0.0,B-Er-Ni,3,Er(NiB)2
0.0,Er-Ge-Ni,3,Er(NiGe)2
0.0,Er-Ni-P,3,Er(NiP)2
0.0,Er-Ni-Sb,3,Er(NiSb)2
2.7034,Er-O-P,3,Er(PO2)3
0.0,Er-P-Pd,3,Er(PPd)2
0.0,Er-P-Ru,3,Er(PRu)2
0.0,Er-O-Re,3,Er(ReO4)2
0.0,Au-Er-Si,3,Er(SiAu)2
0.0,Er-Ir-Si,3,Er(SiIr)2
0.0,Er-Ni-Si,3,Er(SiNi)2
0.0,Er-Ni-Si,3,Er(SiNi5)2
0.0,Er-Os-Si,3,Er(SiOs)2
0.0,Er-Pd-Si,3,Er(SiPd)2
0.0,Er-Pt-Si,3,Er(SiPt)2
0.0,Er-Rh-Si,3,Er(SiRh)2
0.0,Er-Ru-Si,3,Er(SiRu)2
0.0,Er-Ga-Ti,3,Er(TiGa2)2
0.0,Er-Fe-V,3,Er(VFe5)2
0.0,Er-Ga-V,3,Er(VGa2)2
0.3703000000000003,Er-P-Zn,3,Er(ZnP)3
0.0,Co-Er-Ga,3,Er10Ga5Co
0.0,C-Er-Ru,3,Er10Ru10C19
0.0,C-Er-Mn,3,Er12(MnC3)5
0.0,C-Er-Os,3,Er12(OsC3)5
0.0,C-Er-Re,3,Er12(ReC3)5
0.0,Bi-Co-Er,3,Er12Co5Bi
0.0,Er-Fe-In,3,Er12In3Fe2
0.0,Al-Er-Pd,3,Er2(Al3Pd)3
0.0,Al-Er-Rh,3,Er2(Al3Rh)3
0.0,B-Er-Rh,3,Er2(B2Rh3)3
0.0,Co-Er-Ga,3,Er2(Ga3Co)3
0.0,Er-Ga-Ir,3,Er2(Ga3Ir)3
0.0,Er-Ga-Rh,3,Er2(Ga3Rh)3
0.0,Er-Ga-Ru,3,Er2(Ga3Ru)3
0.0,Er-Ge-Pt,3,Er2(GePt3)3
0.0,B-Er-Ni,3,Er2(Ni7B2)3
0.0,B-Er-Ni,3,Er2(NiB2)3
3.9485,Er-O-Se,3,Er2(SeO3)3
0.6339,Er-O-Se,3,Er2(SeO4)3
2.7019,Er-O-Se,3,Er2(SeO4)3
0.0,Er-Pt-Si,3,Er2(SiPt)3
3.917100000000001,Er-O-W,3,Er2(WO4)3
0.0,Ag-Au-Er,3,Er2AgAu
0.0,Ag-Er-Hg,3,Er2AgHg
0.0,Ag-Er-Ir,3,Er2AgIr
0.0,Ag-Er-Os,3,Er2AgOs
0.0,Ag-Er-Pt,3,Er2AgPt
0.0,Ag-Er-Ru,3,Er2AgRu
0.0,Al-Er,2,Er2Al
0.0,Al-Co-Er,3,Er2Al3Co
0.0,Al-Cu-Er,3,Er2Al3Cu
0.0,Al-Er-Ga,3,Er2Al3Ga
0.0,Al-Er-Ge,3,Er2Al3Ge4
0.0,Al-Er-Si,3,Er2Al3Si2
0.0,Al-Co-Er-Ge,4,Er2Al4CoGe2
0.0,Al-Er-Ge-Ni,4,Er2Al4NiGe2
0.0,Al-Cd-Er,3,Er2AlCd
0.0,Al-Co-Er,3,Er2AlCo3
0.0,Al-Cu-Er,3,Er2AlCu
0.0,Al-Er-Fe,3,Er2AlFe3
0.0,Al-Er-Ge,3,Er2AlGe4
0.0,Al-Er-Ni,3,Er2AlNi2
0.0,Al-Er-Si,3,Er2AlSi
0.0,Al-Er-Si,3,Er2AlSi2
0.0,Al-Er-Zn,3,Er2AlZn
0.0,As-Er-Rh,3,Er2As7Rh12
0.0,Au-Er,2,Er2Au
0.0,B-C-Er,3,Er2B4C
5.6886,B-Er-O,3,Er2B4O9
0.0,B-Er-Os,3,Er2B6Os
0.0,B-Er-Rh,3,Er2B6Rh
0.0,B-Er-Ru,3,Er2B6Ru
0.0,B-Er-Pd,3,Er2BPd6
0.0,B-Er-Pt,3,Er2BPt6
4.4309,Be-Er-Ge-O,4,Er2Be2GeO7
5.3446,Be-Er-O-Si,4,Er2Be2SiO7
0.0,Bi-Er-O,3,Er2BiO2
0.0,Br-Er-O,3,Er2Br2O
0.0,C-Er,2,Er2C
4.0097000000000005,C-Er-N-O,4,Er2C(NO)2
0.0,C-Er,2,Er2C3
0.0,Cd-Cu-Er,3,Er2CdCu2
0.0,Cd-Er-Ge,3,Er2CdGe2
0.0,Cd-Er-Hg,3,Er2CdHg
0.0,Cd-Er-In,3,Er2CdIn
0.0,Cd-Er-Os,3,Er2CdOs
0.0,Cd-Er-Pd,3,Er2CdPd2
1.1479,Cd-Er-S,3,Er2CdS4
0.0,Cl-Er-O,3,Er2Cl2O
0.0,Co-Er-Ni,3,Er2Co12Ni5
0.0,Co-Er-P,3,Er2Co12P7
0.0,Co-Er,2,Er2Co17
0.0,Co-Cu-Er,3,Er2Co3Cu
0.0,Co-Er-Ge,3,Er2Co3Ge5
0.0,Co-Er-Si,3,Er2Co3Si5
0.0,Co-Er,2,Er2Co7
0.0,B-Co-Er,3,Er2Co7B3
0.0,Co-Er-Ge,3,Er2CoGe2
0.0,Co-Er-Ge,3,Er2CoGe6
0.0,Co-Er-Ir,3,Er2CoIr
0.0,Co-Er-Si,3,Er2CoSi2
1.8416,Co-Er-O-S-Te,5,Er2CoTe2(SO7)2
0.0,C-Cr-Er,3,Er2Cr2C3
0.0,Cr-Er-Ge,3,Er2CrGe4
2.1271000000000004,Cr-Er-O-Sb,4,Er2CrSbO7
0.6619000000000002,B-Cu-Er-O,4,Er2Cu(B2O5)2
0.7189000000000001,Cu-Er-Ge-O,4,Er2Cu(GeO3)4
0.6651000000000002,Cu-Er-Ge-O,4,Er2Cu(GeO4)2
0.3130000000000001,Cu-Er-O,3,Er2Cu2O5
0.0,Cu-Er-Si,3,Er2Cu3Si
0.0,Au-Cu-Er,3,Er2CuAu
0.0,Cu-Er-Ge,3,Er2CuGe6
0.0,Cu-Er-Ir,3,Er2CuIr
0.0,Cu-Er-Ni,3,Er2CuNi
0.0,Cu-Er-O,3,Er2CuO4
0.0,Cu-Er-Os,3,Er2CuOs
0.0,Cu-Er-Pd,3,Er2CuPd
0.0,Cu-Er-Pt,3,Er2CuPt
0.0,Cu-Er-Ru,3,Er2CuRu
0.0,Cu-Er-Si,3,Er2CuSi3
0.0,Cu-Er-Tc,3,Er2CuTc
0.8785000000000003,Cu-Er-O-S-Te,5,Er2CuTe2(SO7)2
0.0,Er-Fe-P,3,Er2Fe12P7
0.0,Er-Fe-Si,3,Er2Fe14Si3
0.0,C-Er-Fe,3,Er2Fe17C
0.0,C-Er-Fe,3,Er2Fe17C2
0.0,C-Er-Fe,3,Er2Fe17C3
0.0,C-Er-Fe-Si,4,Er2Fe2Si2C
0.0,Cu-Er-Fe,3,Er2Fe3Cu
0.0,Er-Fe-Si,3,Er2Fe4Si9
0.0,Co-Er-Fe-P,4,Er2Fe6Co6P7
0.0,C-Er-Fe,3,Er2FeC4
1.5915000000000008,Er-Fe-O-Sb,4,Er2FeSbO7
0.0,Er-Fe-Si,3,Er2FeSi2
0.0,Er-Fe-Si,3,Er2FeSi4
0.0,Er-Ga-Os,3,Er2Ga10Os3
0.0,C-Er-Fe-Ga,4,Er2Ga3(Fe7C)2
0.0,Co-Er-Ga,3,Er2Ga3Co
0.0,Cu-Er-Ga,3,Er2Ga3Cu
0.0,Er-Ga-Ni,3,Er2Ga3Ni
0.0,Cu-Er-Ga,3,Er2Ga6Cu11
0.0,Co-Er-Ga,3,Er2Ga8Co
0.0,Er-Fe-Ga,3,Er2Ga8Fe
0.0,Co-Er-Ga,3,Er2GaCo2
0.0,Cu-Er-Ga,3,Er2GaCu
0.0,Er-Ga-Ni,3,Er2GaNi2
0.0,Er-Ge-Ru,3,Er2Ge2Ru
0.0,Er-Ge,2,Er2Ge3
0.0,Er-Ge,2,Er2Ge5
0.0,Er-Ge-Rh,3,Er2Ge5Rh3
0.0,Er-Ge-Ru,3,Er2Ge5Ru3
0.0,Er-Ge-Pd,3,Er2Ge6Pd
0.0,Er-Ge-Pt,3,Er2Ge6Pt
3.6141,Er-Ge-O,3,Er2GeO5
0.0,Er-Ge-Rh,3,Er2GeRh3
3.0001,Er-Hf-O,3,Er2Hf2O7
0.0,Er-I-O,3,Er2I2O
0.0,Er-In,2,Er2In
0.0,Cu-Er-In,3,Er2In3Cu
0.0,Ag-Er-In,3,Er2InAg
0.0,Au-Er-In,3,Er2InAu2
0.0,Cu-Er-In,3,Er2InCu2
0.0,Er-Hg-In,3,Er2InHg
0.0,Er-In-Ni,3,Er2InNi2
0.0,Er-In-Pd,3,Er2InPd2
0.0,Er-Ir-Pd,3,Er2IrPd
0.0,Er-Ir-Rh,3,Er2IrRh
0.0,Er-Ir-Ru,3,Er2IrRu
0.0,Er-Mg,2,Er2Mg
0.0,Er-Mg-Ru,3,Er2Mg2Ru
0.0,Er-Mg-Ru,3,Er2Mg3Ru
0.0,Al-Er-Mg,3,Er2MgAl
0.0,Cd-Er-Mg,3,Er2MgCd
1.5186000000000002,Cr-Er-Mg-O,4,Er2MgCr2O8
1.698,Cr-Er-Mg-O,4,Er2MgCr2O8
0.9809,Cr-Er-Mg-O,4,Er2MgCr2O8
0.0,Cu-Er-Ge-Mg-O,5,Er2MgCu(GeO3)4
0.0,Cu-Er-Mg,3,Er2MgCu2
0.0,Er-Ga-Mg,3,Er2MgGa
0.0,Er-Ge-Mg,3,Er2MgGe2
0.0,Er-In-Mg,3,Er2MgIn
1.7416,Cl-Er-Mg-Mo-O,5,Er2MgMo2(ClO4)2
0.0,Er-Mg-Nb-O,4,Er2MgNb2O8
0.0350000000000001,Er-Mg-Nb-O,4,Er2MgNb2O8
0.0,Er-Mg-Ni,3,Er2MgNi2
0.0,Er-Mg-Os,3,Er2MgOs
1.4383000000000004,Er-Mg-S,3,Er2MgS4
2.3328999999999995,Er-Mg-S,3,Er2MgS4
2.0129,Er-Mg-S,3,Er2MgS4
1.385,Er-Mg-Se,3,Er2MgSe4
2.0201,Er-Mg-Se,3,Er2MgSe4
0.0,Er-Mg-Si,3,Er2MgSi2
0.0,Er-Mg-Tc,3,Er2MgTc
3.2353,Er-Mg-O-Ti,4,Er2MgTiO6
0.0,Er-Mg-Tl,3,Er2MgTl
1.9812,Er-Mg-O-Tl-W,5,Er2MgTl2(WO4)4
1.9495,Er-Mg-O-Tl-W,5,Er2MgTl2(WO4)4
1.886,Er-Mg-O-Tl-W,5,Er2MgTl2(WO4)4
2.1066000000000003,Er-Mg-O-Tl-W,5,Er2MgTl2(WO4)4
1.5489000000000002,Er-Mg-O-V,4,Er2MgV2O8
1.6770999999999998,Er-Mg-O-V,4,Er2MgV2O8
2.0246,Er-Ge-Mn-O,4,Er2Mn(GeO3)4
0.0,Er-Mn-P,3,Er2Mn12P7
0.0,Er-Mn-O,3,Er2Mn2O7
0.0,Er-Ga-Mn,3,Er2Mn3Ga
1.1665,Er-Mn-O-Sb,4,Er2Mn3Sb3O14
0.0,C-Er-Mn,3,Er2MnC4
0.0,Er-Ga-Mn,3,Er2MnGa3
0.0,Er-Ge-Mn,3,Er2MnGe4
0.0,Er-Mn-S,3,Er2MnS4
0.0,C-Er-Mo,3,Er2Mo2C3
1.8785000000000005,Er-Mo-O,3,Er2MoO6
0.0,Er-Nb-O,3,Er2Nb2O7
0.0,As-Er-Ni,3,Er2Ni12As7
0.0,Er-Ni-P,3,Er2Ni12P7
0.0,Er-Ni,2,Er2Ni17
0.0,Er-Ni-Sn,3,Er2Ni2Sn
0.0,Er-Ni,2,Er2Ni7
0.0,As-Er-Ni,3,Er2NiAs2
0.0,Er-Ge-Ni,3,Er2NiGe6
0.0,Er-Ir-Ni,3,Er2NiIr
0.0,Er-Ni-Os,3,Er2NiOs
0.0,Er-Ni-Ru,3,Er2NiRu
0.0,Er-Ni-O-Ru,4,Er2NiRuO6
0.0,Er-Ni-Sn,3,Er2NiSn6
2.8826,Er-O,2,Er2O3
4.196899999999999,Er-O,2,Er2O3
4.1023,Er-O,2,Er2O3
0.0,C-Er-Os,3,Er2OsC2
0.0,Er-Os-Pd,3,Er2OsPd
0.0,Er-P-Rh,3,Er2P7Rh12
0.0,Er-O-Pa,3,Er2Pa2O5
0.9168999999999996,Er-O-Pb,3,Er2Pb2O7
0.0,Er-Pb-Pd,3,Er2Pd2Pb
0.0,Au-Er-Pd,3,Er2PdAu
0.0,Er-Pd-Pt,3,Er2PdPt
0.0,Er-Pd-Rh,3,Er2PdRh
0.0,Er-Pd-Ru,3,Er2PdRu
0.0,Er-Pt,2,Er2Pt
0.0,Er-O-Pt,3,Er2Pt2O5
1.5404999999999998,Er-O-Pt,3,Er2Pt2O7
0.0,Au-Er-Pt,3,Er2PtAu
0.0,C-Er-Re-Si,4,Er2Re2Si2C
0.0,B-Er-Re,3,Er2ReB6
0.0,C-Er-Re,3,Er2ReC2
0.0,Er-O-Ru,3,Er2Ru2O7
0.0,Au-Er-Ru,3,Er2RuAu
0.0,Er-Pt-Ru,3,Er2RuPt
0.0,Er-Rh-Ru,3,Er2RuRh
0.0,Er-F-S,3,Er2S2F
2.6476,Er-O-S,3,Er2S2O
0.6266999999999996,Er-S,2,Er2S3
1.1633,Er-S,2,Er2S3
3.0733,Er-O-S,3,Er2SO2
0.0,Er-O-Sb,3,Er2SbO2
0.0,Er-O-Sc,3,Er2Sc2O5
0.2324999999999999,Er-Se,2,Er2Se3
2.1741000000000006,Er-O-Se,3,Er2SeO2
4.7986,Er-O-Si,3,Er2Si2O7
4.918,Er-O-Si,3,Er2Si2O7
0.0,Er-Si,2,Er2Si3
0.0,Er-Ni-Si,3,Er2Si3Ni
0.0,Er-Pd-Si,3,Er2Si3Pd
0.0,Er-Rh-Si,3,Er2Si3Rh
0.0,Er-Mo-Si,3,Er2Si4Mo3
0.0,Er-Ni-Si,3,Er2Si5Ni3
0.0,Er-Rh-Si,3,Er2Si5Rh3
0.0,Er-Ru-Si,3,Er2Si5Ru3
0.0,Er-Ge-Si,3,Er2SiGe
4.650399999999999,Er-O-Si,3,Er2SiO5
4.7586,Er-O-Si,3,Er2SiO5
0.0,Er-Rh-Si,3,Er2SiRh3
2.811400000000001,Er-O-S-Si,4,Er2SiSO4
2.5586,Er-O-Se-Si,4,Er2SiSeO4
2.6825,Er-O-Sn,3,Er2Sn2O7
0.0,Er-Sn,2,Er2Sn5
0.0,Au-Er-Sn,3,Er2SnAu2
0.0,Er-O-Tc,3,Er2Tc2O7
0.0,Ag-Er-Tc,3,Er2TcAg
3.2333,Er-O-Te,3,Er2Te4O11
0.6536999999999997,Er-O-Te,3,Er2TeO2
0.5423999999999998,Er-O-Te,3,Er2TeO2
0.4871999999999996,Er-O-Te,3,Er2TeO2
2.4523,Er-O-Te,3,Er2TeO6
3.0329,Er-O-Te,3,Er2TeO6
3.0127,Er-O-Te,3,Er2TeO6
1.77,Er-S-Te,3,Er2TeS2
0.9685,Er-F-O-Th,4,Er2ThOF10
2.6986,Er-O-Ti,3,Er2Ti2O7
0.0,Cu-Er-O-Ti,4,Er2TiCuO6
2.9253,Er-O-Ti,3,Er2TiO5
2.8258,Er-O-Ti,3,Er2TiO5
2.8529,Er-O-Ti,3,Er2TiO5
2.9668999999999994,Er-O-Ti,3,Er2TiO5
3.2962,Er-O-Ti,3,Er2TiO5
0.0,Ag-Er-Tl,3,Er2TlAg
0.0,Cd-Er-Tl,3,Er2TlCd
1.4287999999999998,Cu-Er-S-Tl,4,Er2TlCu3S5
0.0,Er-Hg-Tl,3,Er2TlHg
0.0,Er-In-Tl,3,Er2TlIn
0.0,Er-Tl-Zn,3,Er2TlZn
0.0,Er-O-U,3,Er2U3O11
0.0,Er-O-S-U,4,Er2US3O2
0.0,Er-O-V,3,Er2V2O7
1.4206000000000003,Er-Fe-O-V,4,Er2VFeO6
3.6554,Er-O-W,3,Er2WO6
3.7911,Er-O-W,3,Er2WO6
0.0,Er-Zn,2,Er2Zn17
0.0,Ag-Er-Zn,3,Er2ZnAg
0.0,As-Er-O-Zn,4,Er2ZnAs2O
0.0,Au-Er-Zn,3,Er2ZnAu
0.0,Cu-Er-Zn,3,Er2ZnCu
0.0,Er-Ga-Zn,3,Er2ZnGa
0.0,Er-Hg-Zn,3,Er2ZnHg
0.0,Er-In-Zn,3,Er2ZnIn
0.0,Er-Ir-Zn,3,Er2ZnIr
0.0,Er-Os-Zn,3,Er2ZnOs
0.0,Er-Ru-Zn,3,Er2ZnRu
0.0,Er-Tc-Zn,3,Er2ZnTc
3.9586,Er-O-S-Te-Zn,5,Er2ZnTe2(SO7)2
4.3849,Er-O-Zr,3,Er2Zr2O7
2.8423000000000003,Er-O-Zr,3,Er2Zr2O7
2.3925000000000005,Er-O-Zr,3,Er2Zr2O7
2.4058,Er-O-Zr,3,Er2Zr8O19
0.0,Ag-Er-Pb,3,Er3(AgPb2)2
0.0,Al-Er-Fe,3,Er3(Al2Fe)2
0.0,Al-Er-Ni,3,Er3(AlNi3)2
0.0,Co-Er-Ge,3,Er3(CoGe2)2
0.0,Cu-Er-Ge,3,Er3(CuGe)4
0.0,Cu-Er-Si,3,Er3(CuSi)4
0.0,Cu-Er-Sn,3,Er3(CuSn)4
0.0,Er-Fe-Ge,3,Er3(FeGe)4
0.0,Er-Ga-Ni,3,Er3(GaNi3)2
0.0,Co-Er-In,3,Er3(In2Co)2
0.0,Er-P-Pd,3,Er3(P3Pd10)2
0.0,Er-Pd-Si,3,Er3(Si3Pd10)2
0.0,Er-Ni-Si,3,Er3(SiNi3)2
0.0,Al-Er,2,Er3Al2
0.0,Al-Er-H-Ni,4,Er3Al2Ni6H7
0.0,Al-Co-Er-Ge,4,Er3Al3CoGe2
0.0,Al-Er-Ge-Ni,4,Er3Al3NiGe2
0.0,Al-C-Er,3,Er3AlC
0.0,Al-Er-N,3,Er3AlN
0.0,Al-Er-Ni,3,Er3AlNi8
0.0,As-Er,2,Er3As
0.0,B-Er-W,3,Er3B7W
0.0,Be-Cr-Er-S,4,Er3BeCrS7
0.0,Co-Er,2,Er3Co
0.0,B-Co-Er,3,Er3Co11B4
0.0,Co-Er-Si,3,Er3Co2Si3
0.0,Co-Er-Sn,3,Er3Co6Sn5
0.0,Co-Er-Si,3,Er3CoSi3
0.0,B-Cr-Er,3,Er3CrB7
0.3338999999999998,Cu-Er-Sb,3,Er3Cu3Sb4
1.7469,Cu-Er-Ge-S,4,Er3CuGeS7
1.8759999999999997,Cu-Er-S-Si,4,Er3CuSiS7
0.0,Er-Fe-Ge,3,Er3Fe2Ge3
0.0,Er-Fe-Si,3,Er3Fe2Si3
0.0,B-Er-Fe,3,Er3FeB7
0.0,Er-Fe-Ge,3,Er3FeGe3
0.0,Er-Fe-Si,3,Er3FeSi3
0.0,Er-Ga,2,Er3Ga
0.0,Er-Ga-Ge,3,Er3Ga2Ge3
0.0,Ag-Er-Ga,3,Er3Ga8Ag3
0.0,Au-Er-Ga,3,Er3Ga8Au3
0.0,Er-Ga-Ir,3,Er3Ga8Ir3
0.0,Er-Ga-Ni,3,Er3Ga8Ni3
0.0,Er-Ga-Rh,3,Er3Ga8Rh3
0.0,Er-Ga-Pt,3,Er3Ga9Pt2
0.0,C-Er-Ga,3,Er3GaC
0.0,Co-Er-Ga-S,4,Er3GaCoS7
0.0,Er-Ga-Ni-S,4,Er3GaNiS7
3.539,Er-Ga-O,3,Er3GaO6
2.1065,Er-Ga-S,3,Er3GaS6
0.0,Er-Ge,2,Er3Ge
0.0,Er-Ge-Ru,3,Er3Ge3Ru2
0.0,Er-Ge,2,Er3Ge4
0.0,Er-Hg,2,Er3Hg
0.0,Er-In,2,Er3In
0.0,Er-In,2,Er3In5
0.0,C-Er-In,3,Er3InC
0.0,Er-In-N,3,Er3InN
0.0,Er-Ir,2,Er3Ir
0.0,Er-Lu,2,Er3Lu
0.0,Er-Mg,2,Er3Mg
0.0,Er-Ga-Ge-Mn,4,Er3Mn3Ga2Ge
0.0,Er-Ga-Mn-Si,4,Er3Mn3Ga2Si
0.0,B-Er-Mn,3,Er3MnB7
0.0,Er-Ni,2,Er3Ni
0.0,B-Er-Ni,3,Er3Ni13B2
0.0,B-Er-Ni,3,Er3Ni19B10
0.0,Er-Ni,2,Er3Ni2
0.0,B-Er-Ni,3,Er3Ni7B2
0.0,Er-Np,2,Er3Np
5.6188,Er-F-O,3,Er3O2F5
0.0,Er-F-O,3,Er3OF10
0.0,Er-Os,2,Er3Os
0.0,Er-P,2,Er3P
0.0,Er-P-Pd,3,Er3P4Pd7
0.0,Er-Pb,2,Er3Pb
0.0,C-Er-Pb,3,Er3PbC
0.0,Er-Pd,2,Er3Pd2
0.0,Er-Pd,2,Er3Pd4
0.0,Er-Pt,2,Er3Pt
0.0,Er-Pt,2,Er3Pt4
0.0,B-Er-Re,3,Er3ReB7
0.0,Er-Rh,2,Er3Rh
0.0,Er-Ru,2,Er3Ru
0.0,Er-Ru,2,Er3Ru2
0.0495000000000001,Er-I-Ru,3,Er3RuI3
1.7451,Er-F-O-S,4,Er3S2OF3
0.4717000000000002,Er-F-O-S,4,Er3S3OF
0.6124999999999998,Au-Er-Sb,3,Er3Sb4Au3
2.783,Er-O-Sb,3,Er3SbO7
0.0,Er-S-Sc,3,Er3Sc2S7
1.0477999999999996,Er-S-Sc,3,Er3ScS6
1.0170999999999997,Er-S-Sc,3,Er3ScS6
1.0296999999999996,Er-S-Sc,3,Er3ScS6
0.0,Er-Ni-Si,3,Er3Si3Ni
0.0,Er-Sn,2,Er3Sn
0.0,Er-Sn,2,Er3Sn7
0.0,C-Er-Sn,3,Er3SnC
3.1754,Er-O-Ta,3,Er3TaO7
3.3585,Er-O-Ta,3,Er3TaO7
3.3568,Er-O-Ta,3,Er3TaO7
0.0,Er-Th,2,Er3Th
1.2826000000000004,Cu-Er-S-Tl,4,Er3Tl2Cu5S8
0.0,Er-Tl,2,Er3Tl5
0.0,C-Er-Tl,3,Er3TlC
0.0,Er-Tm,2,Er3Tm
5.656499999999999,B-Er-O,3,Er4(B2O5)3
0.0,B-Co-Er,3,Er4(CoB2)3
0.0,Al-Er,2,Er4Al
0.0,Al-Er-Si,3,Er4AlSi3
0.3912000000000004,C-Er,2,Er4C7
1.1812999999999998,Cd-Er-S,3,Er4CdS7
0.0,Co-Er,2,Er4Co
0.0,Co-Er,2,Er4Co3
0.0,B-Co-Er,3,Er4CoB13
0.0,Co-Er-Sn,3,Er4CoSn8
0.0,Cr-Er-S,3,Er4CrS7
0.0,Cr-Er-Se,3,Er4CrSe7
0.3639999999999999,Cu-Er-P,3,Er4Cu5P7
0.0,Cu-Er-Ge,3,Er4CuGe8
0.0,Er-Fe,2,Er4Fe
0.0,Er-Fe-Si,3,Er4Fe29Si5
0.2732999999999999,Er-Fe-S,3,Er4FeS7
0.0,Er-Ga-Ni,3,Er4Ga12Ni
0.0,Er-Ga-Pd,3,Er4Ga12Pd