eg,chemsys,nelements,formula
0.0060999999999999,Be-Eu-O-Si,4,Eu2Be2SiO7
0.0,Au-Bi-Eu,3,Eu2BiAu
0.1059999999999998,Bi-Eu-O-Sb,4,Eu2BiSbO6
0.0,Br-Eu-F,3,Eu2Br2F
0.0,Br-Eu-O,3,Eu2BrO2
0.6898,C-Cl-Eu-N,4,Eu2C(NCl)2
0.0,C-Eu-N-O,4,Eu2C(NO)2
0.0,As-Cd-Eu,3,Eu2Cd2As3
0.0,Cd-Eu-Ga,3,Eu2CdGa
0.0,Cd-Eu-Ge,3,Eu2CdGe
0.0,Cd-Eu-Hg,3,Eu2CdHg
0.0,Cd-Eu-Pb,3,Eu2CdPb
0.0,Cd-Eu-Sn,3,Eu2CdSn
0.0,Cl-Eu-F,3,Eu2Cl2F
0.0,Co-Eu-P,3,Eu2Co12P7
0.0,Co-Eu-O,3,Eu2Co2O5
0.0,Co-Eu-Ge-Si,4,Eu2Co4Si3Ge
0.0,Co-Eu-Ge,3,Eu2Co5Ge3
0.0,Co-Eu-O,3,Eu2CoO4
0.0,Co-Eu-O-Pt,4,Eu2CoPtO6
0.0,Co-Eu-O-Ru,4,Eu2CoRuO6
0.0,Co-Eu-Si,3,Eu2CoSi3
0.0108999999999999,Co-Eu-O-S-Te,5,Eu2CoTe2(SO7)2
0.0,Co-Eu-O-W,4,Eu2CoWO6
0.0,Cr-Eu-O,3,Eu2Cr2O5
0.0,Cr-Eu-In-O,4,Eu2CrInO6
0.0,Cr-Eu-O-Sb,4,Eu2CrSbO6
0.0,Cr-Eu-O-Sn,4,Eu2CrSnO6
0.0,Cu-Eu,2,Eu2Cu
0.1997,Cu-Eu-Ge-O,4,Eu2Cu(GeO3)4
0.0,Cu-Eu-Ge-O,4,Eu2Cu(GeO4)2
0.0,Cu-Eu-O,3,Eu2Cu2O5
0.0,Cu-Eu-Ge-Si,4,Eu2Cu4Si3Ge
0.0,Cu-Eu-P,3,Eu2Cu6P5
0.1957999999999999,Cu-Eu-H-O-S,5,Eu2CuH4(SO6)2
0.0,Cu-Eu-Ir,3,Eu2CuIr
0.0,Cu-Eu-O,3,Eu2CuO4
0.0,Cu-Eu-Rh,3,Eu2CuRh
0.0,Cu-Eu-O-Se,4,Eu2CuSe2O
0.0,Cu-Eu-Si,3,Eu2CuSi3
0.0,Cu-Eu-O-S-Te,5,Eu2CuTe2(SO7)2
0.0,Cu-Eu-Te,3,Eu2CuTe4
0.0,Dy-Eu-Mn-O,4,Eu2DyMnO6
0.2193000000000005,Dy-Eu-O-Sb,4,Eu2DySbO6
0.0,Dy-Eu-O-Ta,4,Eu2DyTaO6
0.0,Dy-Eu-O-W,4,Eu2DyWO6
0.6359000000000004,Er-Eu-O-Ta,4,Eu2ErTaO6
0.0227000000000003,Eu-Fe-O,3,Eu2Fe2O5
0.0,Eu-Fe-O,3,Eu2Fe2O5
0.0720999999999998,Eu-Fe-H,3,Eu2FeH6
0.0,Eu-Fe-P-Pt,4,Eu2FeP3Pt7
0.0,Eu-Fe-O-Sb,4,Eu2FeSbO7
0.0,Eu-Fe-O-Sn,4,Eu2FeSnO6
0.0,Eu-Fe-O-W,4,Eu2FeWO6
0.0,Eu-Ga-O,3,Eu2Ga2O5
0.0,Eu-Ga-Ir,3,Eu2Ga3Ir
0.0,Ag-Eu-Ga,3,Eu2Ga7Ag
0.0,Ag-Eu-Ga,3,Eu2GaAg3
0.0,Eu-Ga-Hg,3,Eu2GaHg
0.6783000000000001,Eu-Gd-O-Ta,4,Eu2GdTaO6
0.0,Eu-Ge,2,Eu2Ge
0.0,Au-Eu-Ge,3,Eu2Ge3Au
0.0,Eu-Ge-O,3,Eu2GeO5
0.3629999999999995,Eu-Ge-S,3,Eu2GeS4
0.2343000000000001,Eu-Ge-S,3,Eu2GeS4
0.1383000000000001,Eu-Ge-Se,3,Eu2GeSe4
0.1553,Eu-Ge-Se,3,Eu2GeSe4
0.0910000000000001,Br-Eu-H,3,Eu2H3Br
0.0720999999999998,Cl-Eu-H,3,Eu2H3Cl
0.0,Eu-H-Pd,3,Eu2H4Pd
0.0,Eu-H-Ir,3,Eu2H6Ir
0.0,Eu-H-Ru,3,Eu2H6Ru
0.0,Cl-Eu-H,3,Eu2HCl2
0.0,Eu-Hf-O,3,Eu2Hf2O7
0.0,Eu-Fe-Hf-O,4,Eu2HfFeO6
0.0,Eu-Hf-Nb-O,4,Eu2HfNbO6
0.2862,Eu-Hf-O-Sn,4,Eu2HfSnO6
0.0034999999999998,Eu-Hf-O-Ti,4,Eu2HfTiO6
0.0,Eu-Hf-O-V,4,Eu2HfVO6
0.0,Eu-Hf-O-W,4,Eu2HfWO6
0.3481000000000005,Eu-Hf-O-Zr,4,Eu2HfZrO6
0.0,Bi-Eu-Hg,3,Eu2HgBi
0.0,Eu-Ge-Hg,3,Eu2HgGe
0.0,Eu-Hg-O,3,Eu2HgO4
0.0,Eu-Hg-Sb,3,Eu2HgSb
0.0,Eu-Ho-O-Ta,4,Eu2HoTaO6
0.6358999999999995,Eu-Ho-O-Ta,4,Eu2HoTaO6
0.048,Eu-I-O,3,Eu2I2O
0.0,Eu-In,2,Eu2In
0.0,Cu-Eu-In,3,Eu2In3Cu
0.0,Eu-In-Ni,3,Eu2In3Ni
0.0,Eu-Fe-In-O,4,Eu2InFeO6
0.0,Eu-Hg-In,3,Eu2InHg
0.0,Eu-In-Pd,3,Eu2InPd2
0.0,Eu-In-Pt,3,Eu2InPt2
0.0,Eu-Ir-O,3,Eu2Ir2O7
0.5686,Eu-Lu-O-Ta,4,Eu2LuTaO6
0.0,Eu-Mg,2,Eu2Mg
0.4420000000000001,Eu-H-Mg,3,Eu2Mg3H10
0.2069999999999998,Ag-Eu-Mg-O-W,5,Eu2MgAg2(WO4)4
0.1839999999999997,Ag-Eu-Mg-O-W,5,Eu2MgAg2(WO4)4
0.0,Cd-Eu-Mg,3,Eu2MgCd
0.0,Cu-Eu-Mg-O,4,Eu2MgCuO4
0.0,Eu-Fe-Mg-O,4,Eu2MgFe2O5
0.0,Eu-Ga-Mg,3,Eu2MgGa3
0.3404000000000002,Eu-H-Mg,3,Eu2MgH6
0.0,Eu-In-Mg,3,Eu2MgIn
0.0,Eu-Ir-Mg-O,4,Eu2MgIrO6
0.0,Eu-Mg-O-Pt,4,Eu2MgPtO6
0.0,Eu-Mg-S,3,Eu2MgS4
0.0,Eu-Mg-Se,3,Eu2MgSe4
0.0118,Eu-Mg-O-Si,4,Eu2MgSi2O7
0.0,Eu-Mg-Sn,3,Eu2MgSn
0.2503999999999999,Cl-Eu-Mg-O-Ti,5,Eu2MgTi2(ClO3)2
0.0,Eu-Mg-O-Ti,4,Eu2MgTi2O6
0.0,Eu-Mg-O-Ti,4,Eu2MgTiO4
0.0,Eu-Mg-Tl,3,Eu2MgTl
0.0,Eu-Mg-O-V,4,Eu2MgV2O8
0.0,Eu-Mg-O-V,4,Eu2MgVO4
0.2785999999999999,Eu-Mg-O-W,4,Eu2MgWO6
0.0,Eu-Mn-O,3,Eu2Mn2O5
0.0,Eu-Mn-O,3,Eu2Mn2O7
0.0,Eu-Mn-O-Sb,4,Eu2Mn3Sb3O14
0.0,Al-Eu-Mn,3,Eu2Mn5Al12
0.0,Eu-Mn-P-Pt,4,Eu2MnP3Pt7
0.0,Eu-Mn-O-Rh,4,Eu2MnRhO6
0.0,Eu-Mn-O-Sb,4,Eu2MnSbO7
0.0,Eu-Mn-O-Si,4,Eu2MnSi2O7
0.3875999999999999,Eu-Mn-O-W,4,Eu2MnWO6
0.0,Eu-Mo-O,3,Eu2Mo2O7
0.0,Eu-Mo-O,3,Eu2MoO6
0.0,Eu-N,2,Eu2N
0.0,Eu-Nb-O,3,Eu2Nb4O13
0.0,Eu-Nb-O,3,Eu2Nb5O9
0.8025000000000002,Bi-Eu-Nb-O,4,Eu2NbBiO6
0.0,Eu-Fe-Nb-O,4,Eu2NbFeO6
0.0,Eu-Ga-Nb-O,4,Eu2NbGaO7
0.3272000000000004,Eu-In-Nb-O,4,Eu2NbInO6
0.0,Eu-Nb-O-Sn,4,Eu2NbSnO6
0.0,Eu-Nb-O-W,4,Eu2NbWO6
0.0,Eu-Nb-O-Zn,4,Eu2NbZnO6
0.0,Eu-Ni-P,3,Eu2Ni12P7
0.0,Eu-Ni,2,Eu2Ni17
0.0,Eu-Ni-O,3,Eu2Ni2O5
0.0,Eu-Ni-Sb,3,Eu2Ni3Sb4
0.0,Eu-Ni-P,3,Eu2Ni7P4
0.0,Bi-Eu-Ni-O,4,Eu2NiBiO6
0.0,Eu-Ge-Ni,3,Eu2NiGe3
0.0,Eu-Ni-O,3,Eu2NiO4
0.0,Eu-Ni-O-Pt,4,Eu2NiPtO6
0.0,Eu-Ni-O-Ru,4,Eu2NiRuO6
0.0,Eu-Ni-O-Sb,4,Eu2NiSbO6
0.4429999999999996,Eu-Ni-O-W,4,Eu2NiWO6
0.0,Eu-O,2,Eu2O3
0.1379,Eu-H-O-P,4,Eu2P3(HO3)3
0.0,Eu-P-Pt,3,Eu2P3Pt4
0.0,Br-Eu-P,3,Eu2PBr
0.0,Cl-Eu-P,3,Eu2PCl
0.0,Eu-I-P,3,Eu2PI
0.0,Eu-O-Pb,3,Eu2Pb2O7
0.0,Au-Eu-Pd,3,Eu2PdAu
0.0,Eu-O-Pt,3,Eu2Pt2O7
0.0,Au-Eu-Pt,3,Eu2PtAu
0.0,Eu-O-Re,3,Eu2ReO5
0.0,Eu-O-Ru,3,Eu2Ru2O7
0.0,Eu-S,2,Eu2S3
0.0,Eu-O-S,3,Eu2SO2
0.0,Eu-O-S,3,Eu2SO6
0.0,Au-Eu-Sb,3,Eu2SbAu
0.0,Eu-O-Sc,3,Eu2Sc2O5
0.0,Eu-Nb-O-Sc,4,Eu2ScNbO7
0.0,Eu-O-Se,3,Eu2SeO2
0.0,Eu-S-Se,3,Eu2SeS
0.0,Eu-Si,2,Eu2Si
0.0,Au-Eu-Si,3,Eu2Si3Au
0.0,Eu-Ni-Si,3,Eu2Si3Ni
0.0,Eu-Pd-Si,3,Eu2Si3Pd
0.0,Eu-Ir-Pd-Si,4,Eu2Si4IrPd3
0.0,Au-Eu-Pd-Si,4,Eu2Si4Pd3Au
0.0,Eu-Pt-Si,3,Eu2Si5Pt3
0.0,Eu-N-Si,3,Eu2SiN3
0.0568999999999997,Eu-O-Si,3,Eu2SiO4
0.2888999999999999,Eu-O-Si,3,Eu2SiO4
0.0,Eu-O-Si,3,Eu2SiO5
0.2894000000000005,Eu-S-Si,3,Eu2SiS4
0.0,Eu-Sn,2,Eu2Sn
0.0,Eu-O-Sn,3,Eu2Sn2O7
0.0,Au-Eu-Sn,3,Eu2Sn5Au2
0.0,Eu-Hg-Sn,3,Eu2SnHg
0.0,Eu-Se-Sn,3,Eu2SnSe5
0.0,Eu-O-Ta,3,Eu2Ta2O7
0.3394000000000003,Al-Eu-O-Ta,4,Eu2TaAlO6
0.0,Eu-O-Te,3,Eu2TeO2
0.0,Eu-O-Ti,3,Eu2Ti2O5
0.0,Eu-O-Ti,3,Eu2Ti2O7
0.0,Cu-Eu-O-Ti,4,Eu2TiCuO6
0.0,Eu-In-O-Ti,4,Eu2TiInO6
0.0,Eu-Nb-O-Ti,4,Eu2TiNbO6
0.0,Eu-O-Ti,3,Eu2TiO4
0.0,Eu-O-Ti,3,Eu2TiO5
0.0,Eu-O-Sb-Ti,4,Eu2TiSbO6
0.0,Cd-Eu-Tl,3,Eu2TlCd
0.0,Eu-Hg-Tl,3,Eu2TlHg
0.0,Eu-In-Tl,3,Eu2TlIn
0.0,Eu-Sn-Tl,3,Eu2TlSn
0.0,Eu-Tl-Zn,3,Eu2TlZn
0.0,Eu-O-Ta-Tm,4,Eu2TmTaO6
0.0039999999999995,Eu-O-V,3,Eu2V2O5
0.0,Eu-O-V,3,Eu2VO4
0.0,Eu-O-Sb-V,4,Eu2VSbO6
0.3942000000000005,Eu-O-V-W,4,Eu2VWO6
0.0,Eu-O-W,3,Eu2W2O5
0.2671000000000001,Eu-Nb-O-Y,4,Eu2YNbO6
0.2538999999999998,Eu-O-Sb-Y,4,Eu2YSbO6
0.5364000000000004,Eu-O-Ta-Y,4,Eu2YTaO6
0.0,Eu-O-V-Y,4,Eu2YVO6
0.0,Eu-O-W-Y,4,Eu2YWO6
0.0,As-Eu-Zn,3,Eu2Zn2As3
0.0,Cu-Eu-P-Zn,4,Eu2Zn2CuP3
0.0,Eu-P-Zn,3,Eu2Zn2P3
0.0,Eu-Ge-Zn,3,Eu2Zn3Ge
0.0,Ag-Eu-Zn,3,Eu2ZnAg
0.0,Bi-Eu-Zn,3,Eu2ZnBi2
0.0,Cd-Eu-Zn,3,Eu2ZnCd
0.0,Eu-Ga-Zn,3,Eu2ZnGa
0.0,Eu-Ge-Zn,3,Eu2ZnGe3
0.0,Eu-Hg-Zn,3,Eu2ZnHg
0.0,Eu-In-Zn,3,Eu2ZnIn
0.0,Eu-Ir-Zn,3,Eu2ZnIr
0.0,Eu-P-Zn,3,Eu2ZnP2
0.0,Eu-P-Pt-Zn,4,Eu2ZnP3Pt7
0.0,Eu-O-Pt-Zn,4,Eu2ZnPtO6
0.0,Eu-Rh-Zn,3,Eu2ZnRh
0.0,Eu-Sb-Zn,3,Eu2ZnSb2
0.0,Eu-Sn-Zn,3,Eu2ZnSn
0.4695,Eu-O-W-Zn,4,Eu2ZnWO6
0.0,Eu-O-Zr,3,Eu2Zr2O7
0.0,Cr-Eu-O-Zr,4,Eu2ZrCrO6
0.0,Eu-Fe-O-Zr,4,Eu2ZrFeO6
0.0,Eu-Nb-O-Zr,4,Eu2ZrNbO6
0.1058000000000003,Eu-O-Zr,3,Eu2ZrO4
0.5011999999999999,Eu-O-Sn-Zr,4,Eu2ZrSnO6
0.0034,Eu-O-Ti-Zr,4,Eu2ZrTiO6
0.0,Eu-O-V-Zr,4,Eu2ZrVO6
0.0,Eu-O-W-Zr,4,Eu2ZrWO6
0.0059000000000004,Al-As-Eu,3,Eu3(AlAs2)2
0.0266000000000001,Al-Eu-P,3,Eu3(AlP2)2
0.0,As-Eu-Pd,3,Eu3(AsPd)4
0.0,B-Eu-Rh,3,Eu3(B3Rh4)2
0.4588000000000001,B-Eu-O,3,Eu3(BO3)2
0.0,As-Eu-Ga,3,Eu3(GaAs2)2
0.0,Eu-Ga-Ni,3,Eu3(GaNi)4
0.0,Eu-Ga-P,3,Eu3(GaP2)2
0.0,Eu-Ge-Ir,3,Eu3(GeIr)4
0.0,Eu-In-P,3,Eu3(InP2)2
0.0,Eu-P-Pt,3,Eu3(PPt)4
0.0,Eu-F-S,3,Eu3(SF2)2
0.0,Eu-Ni-Si,3,Eu3(SiNi3)2
0.0,Ag-Eu,2,Eu3Ag
0.0,Ag-Eu,2,Eu3Ag2
0.0,Al-Eu-O,3,Eu3Al2O7
0.0,Al-Eu-O,3,Eu3AlO5
0.0,As-Eu,2,Eu3As4
0.0,Au-Eu,2,Eu3Au2
0.0,Au-Eu-O,3,Eu3AuO6
0.0,B-Eu-F-O,4,Eu3B2(O2F)3
0.0,B-Eu-Pt,3,Eu3B2Pt7
0.1843999999999999,B-Eu-O-W,4,Eu3BWO9
0.0,Be-Eu-O,3,Eu3BeO5
0.0,Bi-Eu,2,Eu3Bi
0.0,Br-Eu-O,3,Eu3BrO4
0.0,Cr-Eu,2,Eu3Cr
0.0,Dy-Eu,2,Eu3Dy
0.0,Dy-Eu-Sb,3,Eu3DySb3
0.0,Er-Eu,2,Eu3Er
0.0,Eu-Fe-O,3,Eu3FeO6
0.0,Eu-Ga,2,Eu3Ga2
0.0,Eu-Ga,2,Eu3Ga5
0.0,Eu-Ga,2,Eu3Ga8
0.0,Eu-Ga-O,3,Eu3GaO6
0.0,Eu-Ge,2,Eu3Ge5
0.0,Eu-H,2,Eu3H
0.0,Eu-Hf,2,Eu3Hf
0.0,Eu-Ho,2,Eu3Ho
0.0,Eu-In,2,Eu3In
0.0,Eu-In-O,3,Eu3InO
0.0,Eu-Ir-O,3,Eu3IrO7
0.0,Eu-Lu,2,Eu3Lu
0.0,Eu-Mg,2,Eu3Mg
0.0,Eu-Mo,2,Eu3Mo
0.0,Eu-Mo-O,3,Eu3MoO7
0.0,Eu-Nb,2,Eu3Nb
0.0,Eu-Nb-O,3,Eu3NbO6
0.0,Eu-Nb-O,3,Eu3NbO7
0.0,B-Eu-Ni,3,Eu3Ni7B2
0.0,Eu-O,2,Eu3O4
0.0,Eu-O-Os,3,Eu3OsO7
0.0,Eu-P,2,Eu3P
0.0,Eu-P,2,Eu3P4
0.0,Eu-Pd,2,Eu3Pd
0.0,Eu-Pd,2,Eu3Pd2
0.0,Eu-Pt,2,Eu3Pt2
0.0,Eu-Re,2,Eu3Re
0.0,Eu-O-Re,3,Eu3ReO7
0.0,Eu-O-Re,3,Eu3ReO8
0.0,Eu-Rh,2,Eu3Rh
0.0,Eu-O-Ru,3,Eu3RuO7
0.0,Eu-S,2,Eu3S
0.0,Eu-S,2,Eu3S4
0.0,Eu-Sb,2,Eu3Sb
0.0,Eu-O-Sb,3,Eu3SbO7
0.0,Eu-Si,2,Eu3Si4
0.1501999999999999,Eu-N-O-Si,4,Eu3Si6N4O9
0.0,Eu-Sn,2,Eu3Sn
0.0,Eu-Sn,2,Eu3Sn5
0.0,Eu-Ta,2,Eu3Ta
0.0,Eu-O-Ta,3,Eu3TaO6
0.0,Eu-O-Ta,3,Eu3TaO7
0.0,Eu-Tc,2,Eu3Tc
0.0,Eu-Te,2,Eu3Te
0.0,Eu-Th,2,Eu3Th
0.0,Eu-Ti,2,Eu3Ti
0.0,Eu-O-Ti,3,Eu3Ti2O7
0.0,Eu-Tl,2,Eu3Tl
0.0,Eu-Tm,2,Eu3Tm
0.0,Eu-U,2,Eu3U
0.0,Eu-V,2,Eu3V
0.0,Eu-O-V,3,Eu3V2O7
0.0,Eu-W,2,Eu3W
0.0,Cl-Eu-O-W,4,Eu3W(ClO2)3
0.1525999999999996,Eu-O-W,3,Eu3WO6
0.0,Eu-Y,2,Eu3Y
0.0,Eu-Mn-O-Y,4,Eu3YMn4O12
0.0,Cu-Eu-P-Zn,4,Eu3Zn2(CuP2)2
0.0,Eu-Zr,2,Eu3Zr
0.0,Al-Eu,2,Eu4Al
0.0,As-Eu-O,3,Eu4As2O
0.0,As-Eu,2,Eu4As3
0.0,B-Eu-F-O,4,Eu4B4O11F2
0.0,B-Eu-Pd,3,Eu4BPd12
0.0,Bi-Eu-O,3,Eu4Bi2O
0.0,Bi-Eu,2,Eu4Bi3
0.0,Eu-Ir,2,Eu4Ir
0.0,Cu-Eu-Mg-O,4,Eu4Mg(Cu2O5)2
0.0,Eu-Fe-Mg-O,4,Eu4Mg(Fe2O5)2
0.0,Eu-F-O,3,Eu4O3F7
0.0,Eu-Pd,2,Eu4Pd
0.0,Eu-O-Pd,3,Eu4PdO7
0.0,Eu-Pt,2,Eu4Pt
0.0,Eu-O-Sb,3,Eu4Sb2O
0.0,Eu-O-Ti,3,Eu4Ti3O10
0.0,Eu-Mo-O,3,Eu5(MoO6)2
0.0,Eu-S-Zr,3,Eu5(ZrS4)3
0.0,As-Eu,2,Eu5As3
0.0,As-Eu,2,Eu5As4
0.0,Cd-Cu-Eu,3,Eu5CdCu2
0.0,Eu-Ge,2,Eu5Ge3
0.0,Eu-Mg,2,Eu5Mg
0.0,Eu-Nb-O,3,Eu5Nb4O15
0.0,Eu-Pd,2,Eu5Pd2
0.0,Eu-Pt,2,Eu5Pt2
0.0,Eu-Si,2,Eu5Si3
0.0,Eu-H-Si,3,Eu5Si3H
0.0,Eu-O-Ta,3,Eu5Ta4O15
0.4268,Eu-H-Mg,3,Eu6Mg7H26
0.0177,Eu-Mg-O-W,4,Eu6MgWO12
0.0,Eu-Mg-O-W,4,Eu6MgWO12
0.0,Eu-O-W,3,Eu6WO12
0.5699000000000005,Cl-Eu-F,3,Eu7(ClF6)2
0.0,Ag-Eu,2,EuAg
0.0,Ag-Eu-O-W,4,EuAg(WO4)2
0.0,Ag-Eu,2,EuAg2
0.0,Ag-Eu-Pb,3,EuAg2Pb
0.0,Ag-Eu-Sn,3,EuAg2Sn
0.0,Ag-Eu,2,EuAg3
0.0,Ag-Eu,2,EuAg5
0.0,Ag-As-Eu,3,EuAgAs
0.0,Ag-Au-Eu,3,EuAgAu2
0.0,Ag-Bi-Eu,3,EuAgBi
0.0,Ag-Eu-Ge,3,EuAgGe
0.0,Ag-Eu-Hg,3,EuAgHg2
0.0,Ag-Eu-O,3,EuAgO2
0.0,Ag-Eu-O,3,EuAgO3
0.0,Ag-Eu-P,3,EuAgP
0.0,Ag-Eu-Sb,3,EuAgSb
0.0,Ag-Eu-Sn,3,EuAgSn
0.0,Al-Eu,2,EuAl
0.0,Al-Eu,2,EuAl2
0.0,Ag-Al-Eu,3,EuAl2Ag3
0.0,Al-Eu-Ge,3,EuAl2Ge
0.0991999999999997,Al-Eu-O,3,EuAl2O4
0.0,Al-B-Eu-O,4,EuAl3(BO3)4
0.0,Ag-Al-Eu,3,EuAl3Ag2
0.0,Al-Cu-Eu,3,EuAl3Cu2
0.0,Al-Eu-Pd,3,EuAl3Pd2
0.0,Al-Eu-Si,3,EuAl3Si
0.0,Al-Eu,2,EuAl4
0.0,Al-Au-Eu-Si,4,EuAl8SiAu4
0.0,Al-Co-Eu,3,EuAl9Co2
0.0,Ag-Al-Eu,3,EuAlAg4
0.0,Al-Au-Eu,3,EuAlAu
0.0,Al-Eu-Ga,3,EuAlGa
0.0,Al-Eu-Ge,3,EuAlGe
0.0,Al-Eu-O,3,EuAlO3
0.0,Al-Eu-Si,3,EuAlSi
0.0,As-Eu,2,EuAs
0.0,As-Eu,2,EuAs3
0.0,As-Au-Eu,3,EuAsAu
0.0,As-Eu-O,3,EuAsO3
0.0,As-Eu-O,3,EuAsO4
0.0,As-Eu-Pd,3,EuAsPd
0.0,As-Eu-Pt,3,EuAsPt
0.0,As-Eu-S,3,EuAsS
0.0,Au-Eu,2,EuAu
0.0,Au-Eu,2,EuAu2
0.0,Au-Eu,2,EuAu3
0.0,Au-Eu,2,EuAu5
0.0,Au-Eu-O,3,EuAuO3
0.0,B-Eu,2,EuB12
0.0,B-Eu-Rh,3,EuB2Rh3
1.912399999999999,B-Eu-O,3,EuB4O7
0.0,B-Eu-Ru,3,EuB4Ru
0.0,B-Eu,2,EuB6
0.0,B-Eu-N,3,EuBN2
0.0,B-Eu-O,3,EuBO3
0.0,B-Eu-Pd,3,EuBPd3
0.0,B-Eu-Pt,3,EuBPt4
0.0,B-Eu-Rh,3,EuBRh3
0.0,Be-Eu,2,EuBe13
0.0,Be-Eu-O,3,EuBeO3
0.0,Bi-Eu,2,EuBi2
0.0,Bi-Br-Eu-O,4,EuBi2BrO4
0.0,Bi-Cl-Eu-O,4,EuBi2ClO4
0.0,Bi-Eu-I-O,4,EuBi2IO4
0.0,Bi-Eu,2,EuBi3
0.0,Au-Bi-Eu,3,EuBiAu
0.0,Au-Bi-Eu,3,EuBiAu2
0.0,Bi-Eu-Pd,3,EuBiPd2
1.1673000000000002,Br-Eu,2,EuBr2
0.0,Br-Eu-O,3,EuBr2O
0.0,Br-Eu,2,EuBr3
0.8183000000000002,Br-Cl-Eu,3,EuBrCl
0.0,Br-Eu-O,3,EuBrO
0.0,Br-Eu-O,3,EuBrO2
0.0,C-Eu,2,EuC2
0.0,C-Eu-N-S,4,EuC2(SN)2
0.0,C-Eu,2,EuC6
0.4575,C-Eu-N,3,EuCN2
0.4292999999999995,C-Eu-O,3,EuCO3
0.0,C-Eu-O,3,EuCO4
0.0,Cd-Eu,2,EuCd
0.0,Cd-Eu,2,EuCd2
0.0,Cd-Eu-In,3,EuCd2In
0.0,Cd-Eu,2,EuCd3
0.0,Cd-Eu-S,3,EuCd3S4
0.0,Ag-Cd-Eu,3,EuCdAg
0.0,Ag-Cd-Eu,3,EuCdAg2
0.0,Au-Cd-Eu,3,EuCdAu
0.0,Au-Cd-Eu,3,EuCdAu2
0.0,Au-Cd-Eu,3,EuCdAu5
0.0,Cd-Eu-Ge,3,EuCdGe
0.0,Cd-Eu-Hg,3,EuCdHg2
0.0,Cd-Eu-O,3,EuCdO3
0.0,Cd-Eu-Pb,3,EuCdPb
0.0,Cd-Eu-Pd,3,EuCdPd
0.0,Cd-Eu-Pt,3,EuCdPt
0.0,Cd-Eu-Sn,3,EuCdSn
1.2108999999999996,Cl-Eu,2,EuCl2
1.2143999999999997,Cl-Eu,2,EuCl2
0.0,Cl-Eu,2,EuCl3
0.1154999999999999,Cl-Eu-F,3,EuClF
0.0,Cl-Eu-O,3,EuClO
0.0,Cl-Eu-O,3,EuClO2
0.0,Co-Eu-Ge-Si,4,EuCo2SiGe
0.0,Co-Eu-P,3,EuCo8P5
0.0,Co-Eu-Si,3,EuCo9Si2
0.0,Co-Eu-Ge,3,EuCoGe3
0.0,Co-Eu-O,3,EuCoO3
0.0,Cr-Eu,2,EuCr3
0.0,Cr-Eu-O,3,EuCrO3
0.0,Cr-Eu-O,3,EuCrO4
0.0,Bi-Cr-Eu-O-Sn,5,EuCrSnBiO6
0.0,Cr-Eu-O-Te,4,EuCrTeO6
0.0,Cu-Eu,2,EuCu
0.0,Cu-Eu-O-W,4,EuCu(WO4)2
0.0,Cu-Eu,2,EuCu2
0.0,Cu-Eu-S-Sn,4,EuCu2SnS4
0.0,Cu-Eu-Pd,3,EuCu3Pd2
0.0,Cu-Eu-P,3,EuCu4P3
0.0,Cu-Eu-Pd,3,EuCu4Pd
0.0,Cu-Eu,2,EuCu5
0.0,Cu-Eu-Sn,3,EuCu9Sn4
0.0,As-Cu-Eu,3,EuCuAs
0.0,Bi-Cu-Eu,3,EuCuBi
0.0,Cu-Eu-O,3,EuCuO2
0.0,Cu-Eu-O,3,EuCuO3
0.0,Cu-Eu-P,3,EuCuP
0.0733000000000005,Cu-Eu-F-S,4,EuCuSF
0.0,Cu-Eu-Sb,3,EuCuSb
0.0304999999999999,Cu-Eu-F-Se,4,EuCuSeF
0.0,Cu-Eu-O-Se,4,EuCuSeO
0.0,Cu-Eu-Si,3,EuCuSi3
0.0,Cu-Eu-Sn,3,EuCuSn
0.0,Cu-Eu-Sn,3,EuCuSn2
0.7290999999999999,Cu-Eu-F-Te,4,EuCuTeF
0.0,Dy-Eu-Ni-O,4,EuDy(NiO3)4
0.0,Dy-Eu-O,3,EuDy2O4
0.0,Cr-Dy-Eu-O,4,EuDyCr4O12
0.0007999999999999,Dy-Eu-O-Ti,4,EuDyTi2O7
0.0,Dy-Eu-O-Ti,4,EuDyTi4O12
0.0,Dy-Eu-O-V,4,EuDyV4O12
0.0,Er-Eu,2,EuEr
0.4169,Er-Eu-O,3,EuEr2O4
0.0,Er-Eu-O,3,EuErO3
0.0,Er-Eu-Tl,3,EuErTl2
0.0,Eu-F,2,EuF2
0.0,Eu-F,2,EuF3
0.0,Eu-Fe,2,EuFe2
0.0,Cu-Eu-Fe-O,4,EuFe4(CuO4)3
0.0,Eu-Fe-O,3,EuFeO3
0.0,Eu-Ga,2,EuGa
0.0,Eu-Ga,2,EuGa2
0.0,B-Eu-Ga-O,4,EuGa3(BO3)4
0.0,Ag-Eu-Ga,3,EuGa3Ag
0.0,Co-Eu-Ga,3,EuGa3Co2
0.0,Cu-Eu-Ga,3,EuGa3Cu
0.0,Eu-Ga-Ni,3,EuGa3Ni2
0.0,Eu-Ga-Pd,3,EuGa3Pd
0.0,Eu-Ga,2,EuGa4
0.0,Au-Eu-Ga,3,EuGa4Au3
0.0,Ag-Eu-Ga,3,EuGaAg
0.0,Ag-Eu-Ga,3,EuGaAg4
0.0,Au-Eu-Ga,3,EuGaAu
0.0,Au-Eu-Ga,3,EuGaAu2
0.0,Cu-Eu-Ga,3,EuGaCu
0.0,Eu-Ga-Ge,3,EuGaGe
0.0,Eu-Ga-O,3,EuGaO3
0.0,Eu-Ga-Pt,3,EuGaPt
0.0,Eu-Ga-Si,3,EuGaSi
0.0,Eu-Ga-Sn,3,EuGaSn
0.0,Eu-Ga-O-Sb-Sn,5,EuGaSnSbO6
0.0,Eu-Gd-Rh,3,EuGdRh2
0.0037000000000002,Eu-Gd-O-Ti,4,EuGdTi2O7
0.0,Eu-Ge,2,EuGe
0.0,Eu-Ge,2,EuGe2
0.0,Eu-Ge-Ir,3,EuGe2Ir
0.0,Eu-Ge,2,EuGe3
0.0,Eu-Ge-Ir,3,EuGe3Ir
0.0,Eu-Ge-Pd,3,EuGe3Pd
0.0,Eu-Ge-Pt,3,EuGe3Pt
0.0,Eu-Ge-Rh,3,EuGe3Rh
0.0,Eu-Ge-Ir,3,EuGe7Ir3
0.0,Eu-Ge-Rh,3,EuGe7Rh3
0.0,Au-Eu-Ge,3,EuGeAu
0.0,Eu-Ge-O,3,EuGeO3
0.0,Eu-Ge-Pd,3,EuGePd
0.0,Eu-Ge-Pd,3,EuGePd2
0.0,Eu-Ge-Pt,3,EuGePt
0.0,Eu-H,2,EuH2
0.0,Eu-H-Pd,3,EuH3Pd
0.0,C-Eu-H-N-O,5,EuH9C5(NO4)2
0.3079999999999998,Cl-Eu-H,3,EuHCl
0.0,Eu-H-O,3,EuHO3
0.0,Eu-H-O-S,4,EuHSO5
0.0,Bi-Cr-Eu-Hf-O,5,EuHfCrBiO6
0.0,Cr-Eu-Hf-O-Sn,5,EuHfCrSnO6
0.1365000000000003,Eu-F-Hf,3,EuHfF7
0.0,Bi-Eu-Fe-Hf-O,5,EuHfFeBiO6
0.0,Eu-Hf-Nb-O-Sn,5,EuHfNbSnO6
0.4795999999999996,Eu-Hf-O,3,EuHfO3
0.1287000000000002,Eu-Hf-S,3,EuHfS3
0.0,Eu-Hf-O-Sn-V,5,EuHfVSnO6
0.0,Eu-Hf-O-Sn-Zr,5,EuHfZrSnO6
0.0,Eu-Hg,2,EuHg
0.0,Eu-Hg,2,EuHg2
0.0,Bi-Eu-Hg,3,EuHg2Bi
0.0,Eu-Hg-Pb,3,EuHg2Pb
0.0,Eu-Hg,2,EuHg3
0.0,Au-Eu-Hg,3,EuHgAu2
0.0,Eu-Hg-O,3,EuHgO3
0.0,Eu-Hg-Pb,3,EuHgPb
0.4124000000000007,Eu-Ho-O,3,EuHo2O4
0.0,Eu-Ho,2,EuHo3
0.973,Br-Eu-I,3,EuIBr
0.9204999999999997,Cl-Eu-I,3,EuICl
0.0,Eu-I-O,3,EuIO
0.0,Eu-In,2,EuIn
0.0,Eu-In,2,EuIn2
0.1271000000000004,Eu-Ge-In-Ir,4,EuIn2(GeIr)4
0.0,Au-Eu-In,3,EuIn2Au
0.0,Eu-In-Ni,3,EuIn2Ni
0.0,Eu-In-Ni,3,EuIn2Ni9
0.0,Eu-In-Pd,3,EuIn2Pd
0.0,Eu-In-Rh,3,EuIn2Rh
0.0,Eu-In,2,EuIn3
0.0,Eu-In,2,EuIn4
0.0,Au-Eu-In,3,EuIn4Au
0.0,Cu-Eu-In,3,EuIn4Cu
0.0,Eu-In-Ir,3,EuIn4Ir
0.0,Eu-In-Ni,3,EuIn4Ni
0.0,Eu-In-Pd,3,EuIn4Pd
0.0,Eu-In-Ni,3,EuIn6Ni7
0.0,Ag-Eu-In,3,EuInAg2
0.0,Au-Eu-In,3,EuInAu
0.0,Au-Eu-In,3,EuInAu2
0.0,Eu-Ge-In,3,EuInGe
0.0,Eu-Hg-In,3,EuInHg2
0.0,Eu-In-Ni,3,EuInNi5
0.0,Eu-In-O,3,EuInO3
0.0,Eu-In-Pd,3,EuInPd
0.0,Eu-In-Pt,3,EuInPt
0.0,Eu-In-Pt,3,EuInPt4
0.0,Eu-In-Rh,3,EuInRh
0.0,Eu-Ir,2,EuIr2
0.0,Eu-Ir-O,3,EuIrO3
0.1374000000000004,Eu-Lu-O,3,EuLu2O4
0.2371000000000007,Cu-Eu-Lu-S,4,EuLuCuS3
0.0,Eu-Lu-O,3,EuLuO3
0.0,Eu-Mg,2,EuMg
0.0,Eu-Mg-O-Re,4,EuMg(ReO4)2
0.0,Eu-Mg,2,EuMg2
0.0,Cu-Eu-Mg,3,EuMg2Cu9
0.0,Eu-Fe-Mg,3,EuMg2Fe
0.0,Eu-H-Mg,3,EuMg2H5
0.0,Eu-Mg,2,EuMg3
0.0,Eu-Mg,2,EuMg5
0.0,Ag-Eu-Mg,3,EuMgAg
0.0,Bi-Eu-Mg-O-Sb,5,EuMgBiSbO6
0.0,Cd-Eu-Mg,3,EuMgCd2
0.0,Co-Eu-Mg-O,4,EuMgCoO3
0.0,Cr-Eu-Mg-O,4,EuMgCrO3
0.2858,Eu-F-Mg,3,EuMgF4
0.0,Eu-Fe-Mg-O,4,EuMgFeO3
0.0,Eu-Ga-Mg,3,EuMgGa
0.0,Eu-Ga-Mg,3,EuMgGa3
0.0,Eu-Ge-Mg,3,EuMgGe
0.1705999999999998,Eu-H-Mg,3,EuMgH4
0.0,Eu-Hg-Mg,3,EuMgHg2
0.0,Eu-Mg-Mn-O,4,EuMgMnO3
0.0,Eu-Mg-Ni,3,EuMgNi
0.0,Eu-Mg-Ni-O,4,EuMgNiO3
0.0,Eu-Mg-O,3,EuMgO3
0.0,Eu-Mg-Pb,3,EuMgPb
0.0,Eu-Mg-Pd,3,EuMgPd
0.0,Eu-Mg-Si,3,EuMgSi
0.0,Eu-Mg-Sn,3,EuMgSn
0.2325999999999997,Eu-Mg-O-Sn-W,5,EuMgSnWO6
0.0,Eu-Mg-O-Ti,4,EuMgTiO3
0.0,Eu-Mg-Tl,3,EuMgTl
0.0,Eu-Mg-Tl,3,EuMgTl2
0.0,Eu-Mg-O-V,4,EuMgVO3
0.0,Eu-Mg-Zn,3,EuMgZn2
0.0,Eu-Mn-O,3,EuMn2O5
0.0,Cu-Eu-Mn-O,4,EuMn4(CuO4)3
0.0,Bi-Eu-Mn,3,EuMnBi2
0.0,Eu-In-Mn,3,EuMnIn
0.0,Bi-Eu-Mn-Nb-O,5,EuMnNbBiO6
0.0,Eu-Mn-Nb-O-Sn,5,EuMnNbSnO6
0.0,Eu-Mn-O,3,EuMnO3
0.1532999999999997,Eu-Mn-O-Sn-W,5,EuMnSnWO6
0.0189999999999999,Cl-Eu-Mo-O,4,EuMoClO4
0.0,Eu-Mo-O,3,EuMoO2
0.0,Eu-Mo-O,3,EuMoO3
0.1665999999999998,Eu-Mo-O,3,EuMoO4
0.0,Eu-F-Mo-O,4,EuMoO4F
0.0,Eu-Mo-O,3,EuMoO5
0.0,Eu-N,2,EuN
0.0,Eu-N,2,EuN2
0.1551999999999997,Eu-Nb-O,3,EuNb2O6
0.0,Eu-Nb,2,EuNb3
0.0,Bi-Cr-Eu-Nb-O,5,EuNbCrBiO6
0.0,Cr-Eu-Nb-O-Sn,5,EuNbCrSnO6
0.0,Eu-Fe-Nb-O-Sn,5,EuNbFeSnO6
0.1559000000000008,Eu-Ga-Nb-O-Sn,5,EuNbGaSnO6
0.0648999999999997,Eu-In-Nb-O-Sn,5,EuNbInSnO6
0.0,Eu-N-Nb-O,4,EuNbNO2
0.0,Eu-Nb-O,3,EuNbO3
0.0,Eu-Nb-O,3,EuNbO4
0.0,Eu-Nb-O-Sn-V,5,EuNbVSnO6
0.0,Bi-Eu-Nb-O-Zn,5,EuNbZnBiO6
0.0,B-C-Eu-Ni,4,EuNi2B2C
0.0,Eu-Ni,2,EuNi3
0.0,B-Eu-Ni,3,EuNi4B
0.0,Eu-Ni,2,EuNi5
0.0,As-Eu-Ni,3,EuNi5As3
0.0,Eu-Ni-P,3,EuNi5P3
0.0,Eu-Ge-Ni,3,EuNi9Ge4
0.0,Eu-Ge-Ni,3,EuNiGe
0.0,Eu-Ge-Ni,3,EuNiGe2
0.0,Eu-Ge-Ni,3,EuNiGe3
0.0,Eu-Ni-O,3,EuNiO3
0.0,Eu-Ni-P,3,EuNiP
0.2139999999999995,Eu-Ni-O-Sn-W,5,EuNiSnWO6
0.0,Eu-Np-O,3,EuNpO3
0.0,Eu-O,2,EuO
0.0,Eu-O,2,EuO2
0.0,Eu-O,2,EuO3
0.0,Eu-F-O,3,EuOF
0.0,Eu-O-Os,3,EuOsO3
0.0,Eu-P,2,EuP
0.0,Eu-P,2,EuP3
0.0,Au-Eu-P,3,EuPAu
0.0,C-Eu-H-O-P,5,EuPH5CO7
0.0,Eu-Ir-P,3,EuPIr
0.0,Eu-O-P,3,EuPO4
0.0,Eu-P-Pd,3,EuPPd
0.0,Eu-P-Pt,3,EuPPt
0.8440000000000003,Eu-P-S,3,EuPS3
0.0,Eu-O-Pa,3,EuPaO4
0.0,Eu-Pb,2,EuPb
0.0,Eu-Pb,2,EuPb3
0.0,Au-Eu-Pb,3,EuPbAu2
0.0,Eu-O-Pb,3,EuPbO3
0.0,Eu-Pd,2,EuPd
0.0,Eu-Pd,2,EuPd2
0.0,Eu-Pd,2,EuPd3
0.0,Eu-Pd-S,3,EuPd3S4
0.0,Eu-O-Pd,3,EuPdO3
0.0,Eu-Pt,2,EuPt2
0.0,Eu-O-Pt,3,EuPtO3
0.0,Eu-Pu-Rh,3,EuPuRh2
0.0,Eu-Re,2,EuRe2
0.0,Eu-O-Re,3,EuReO3
0.0,Eu-Rh,2,EuRh2
0.0,C-Eu-Rh,3,EuRh3C
0.0,Eu-O-Rh,3,EuRhO3
0.0,Eu-O-Ru,3,EuRuO3
0.0,Eu-S,2,EuS
0.0,Eu-S,2,EuS2
0.0,Eu-S,2,EuS3
1.2805,Eu-O-S,3,EuSO4
0.0,Eu-Sb,2,EuSb2
0.0,Au-Eu-Sb,3,EuSbAu
0.0,Eu-O-Sb,3,EuSbO3
0.0,Eu-O-Sb,3,EuSbO4
0.0,Eu-Pd-Sb,3,EuSbPd
0.0,Eu-Pt-Sb,3,EuSbPt
0.0,Eu-Ge-Sc,3,EuScGe
0.0,Eu-O-Sc,3,EuScO3
0.0,Eu-Se,2,EuSe
0.0,Eu-Se,2,EuSe2
0.0,Cl-Eu-O-Se,4,EuSeClO3
0.0865999999999997,Eu-O-Se,3,EuSeO3
0.0,Eu-O-Se,3,EuSeO4
0.0,Eu-Si,2,EuSi
0.0,Eu-Si,2,EuSi2
0.2793000000000001,Eu-N-O-Si,4,EuSi2(NO)2
0.0,Eu-Ni-Si,3,EuSi2Ni
0.0,Eu-Ni-Si,3,EuSi2Ni9
0.0,Au-Eu-Pd-Si,4,EuSi2PdAu
0.0,Eu-Pt-Si,3,EuSi2Pt
0.0,Eu-Ir-Si,3,EuSi3Ir
0.0,Eu-Ni-Si,3,EuSi3Ni
0.0,Eu-Rh-Si,3,EuSi3Rh
0.0,Eu-Si,2,EuSi6
0.0,Ag-Eu-Si,3,EuSiAg
0.0,Eu-Ge-Ni-Si,4,EuSiNi2Ge
0.0,Eu-O-Si,3,EuSiO3
0.0,Eu-Pd-Si,3,EuSiPd
0.0,Eu-Pt-Si,3,EuSiPt
0.0,Eu-Sn,2,EuSn
0.0,Eu-Ir-Sn,3,EuSn2Ir
0.0,Eu-Sn,2,EuSn3
0.0,Au-Eu-Sn,3,EuSnAu2
0.0,Eu-F-Sn,3,EuSnF7
0.0,Eu-Hg-Sn,3,EuSnHg
0.0,Eu-O-Sn,3,EuSnO3
0.0,Eu-P-Sn,3,EuSnP
0.0,Eu-Pd-Sn,3,EuSnPd
0.0,Eu-Pt-Sn,3,EuSnPt
0.0,Eu-Rh-Sn,3,EuSnRh2
0.0,Eu-O-Ta,3,EuTa2O6
0.0,Eu-O-Ta,3,EuTa3O9
0.0,Eu-N-O-Ta,4,EuTaNO2
0.0,Eu-O-Ta,3,EuTaO4
0.0,Eu-O-Tc,3,EuTcO3
0.0,Eu-Te,2,EuTe
0.0,Eu-Pb-Te,3,EuTe2Pb
0.0,Eu-Th,2,EuTh3
0.0,Cd-Eu-F-O-Ti,5,EuTi2CdO6F
0.0,Eu-O-Sn-Ti,4,EuTi4SnO12
0.0,Ag-Eu-O-Ti,4,EuTiAgO4
0.0,Cl-Eu-O-Ti,4,EuTiClO3
0.0,Bi-Eu-Nb-O-Ti,5,EuTiNbBi2O9
0.0,Eu-Nb-O-Sn-Ti,5,EuTiNbSnO6
0.0,Eu-O-Ti,3,EuTiO14
0.0,Eu-O-Ti,3,EuTiO3
0.0,Eu-Tl,2,EuTl
0.0,Eu-Mo-O-Tl,4,EuTl(MoO4)2
0.0,Eu-O-Tl-W,4,EuTl(WO4)2
0.0,Eu-Tl,2,EuTl2
0.0,Cd-Eu-Tl,3,EuTl2Cd
0.0,Eu-Pd-Tl,3,EuTl2Pd
0.0,Eu-Tl,2,EuTl3
0.0,Au-Eu-Tl,3,EuTlAu2
0.0,Eu-Hg-Tl,3,EuTlHg2
0.0,Eu-O-Tl,3,EuTlO2
0.0,Eu-S-Tl,3,EuTlS2
0.4298000000000002,Eu-O-Tm,3,EuTm2O4
0.0,B-Eu-Tm,3,EuTmB12
0.2340999999999997,Cu-Eu-S-Tm,4,EuTmCuS3
0.0,Eu-O-Tm,3,EuTmO3
0.0,Eu-U,2,EuU3
0.0,Eu-O-U,3,EuUO3
0.0,Bi-Eu-O-V,4,EuV2BiO8
0.0,Eu-O-Sn-V,4,EuV4SnO12
0.0,Eu-O-V,3,EuVO2
0.0,Eu-O-V,3,EuVO3
0.0,Eu-O-V,3,EuVO4
0.0,Eu-O-W,3,EuWO2
0.0,Eu-O-W,3,EuWO3
0.0,Eu-O-W,3,EuWO5
0.3841000000000001,Eu-O-Y,3,EuY2O4
0.3902999999999998,Eu-O-Y,3,EuY2O4
0.4062000000000001,Eu-O-Y,3,EuY2O4
0.0,Eu-Y,2,EuY3
0.0,Al-Eu-Y,3,EuYAl4
0.0,Al-B-Eu-O-Y,5,EuYAl6(BO3)8
0.0,Eu-O-Y,3,EuYO2
0.0,Eu-N-Si-Y,4,EuYSi4N7
0.0,Eu-Zn,2,EuZn
0.0,Eu-Zn,2,EuZn11
0.0,Eu-Zn,2,EuZn13
0.0,Eu-Zn,2,EuZn2
0.0,Eu-Zn,2,EuZn5
0.0,Au-Eu-Zn,3,EuZnAu
0.0,Au-Eu-Zn,3,EuZnAu2