eg,chemsys,nelements,formula
1.6245000000000005,Al-Cd-Te,3,Al2CdTe4
0.5769000000000002,Al-Co-O,3,Al2Co2O7
0.0,Al-Co-O,3,Al2Co2O7
0.3521999999999998,Al-Co-Ge-O,4,Al2Co3GeO8
0.0,Al-Co-Ir,3,Al2CoIr
0.0,Al-Co-N,3,Al2CoN3
0.0,Al-Co-Ni,3,Al2CoNi
3.0024000000000006,Al-Co-O,3,Al2CoO4
2.4719000000000007,Al-Co-O,3,Al2CoO4
2.274700000000001,Al-Co-O,3,Al2CoO4
0.0,Al-Co-Os,3,Al2CoOs
0.0,Al-Co-Ru,3,Al2CoRu
0.0925000000000002,Al-Cr-O,3,Al2Cr2O7
0.0,Al-Cr-O,3,Al2Cr2O7
0.1809000000000002,Al-Cr-Cu-S,4,Al2Cr3CuS8
0.0,Al-B-Cr-Mo,4,Al2CrB2Mo
0.0,Al-Co-Cr-Fe,4,Al2CrFeCo4
0.0,Al-Cr-N,3,Al2CrN3
0.3273999999999999,Al-Cr-O,3,Al2CrO5
0.4480999999999993,Al-Cr-O,3,Al2CrO5
0.0,Al-Cr-S,3,Al2CrS4
0.0,Al-Cu,2,Al2Cu
0.0,Al-B-Cu,3,Al2Cu11B13
0.0,Al-Cu-Ni,3,Al2Cu2Ni
0.0,Al-Cu-Ir,3,Al2CuIr
0.0,Al-Cu-Mo,3,Al2CuMo
0.0,Al-Cu-O,3,Al2CuO4
0.0,Al-Cu-Pd,3,Al2CuPd
0.3547999999999998,Al-Cu-Pd,3,Al2CuPd
2.32,Al-Bi-Fe-O,4,Al2Fe2Bi2O9
2.4514,Al-Bi-Fe-O,4,Al2Fe2Bi2O9
0.0,Al-Fe-O,3,Al2Fe2O7
1.7816999999999998,Al-Bi-Fe-O,4,Al2Fe3(BiO4)3
0.0,Al-Bi-Fe-O,4,Al2Fe3(BiO4)3
2.7091,Al-F-Fe,3,Al2Fe3F15
0.0,Al-Fe-Si,3,Al2Fe3Si4
0.0,Al-Co-Fe,3,Al2FeCo
0.0,Al-Fe-Ir,3,Al2FeIr
0.0817000000000005,Al-Fe-N,3,Al2FeN3
0.0,Al-Fe-Ni,3,Al2FeNi
0.0,Al-Fe-O,3,Al2FeO4
2.5346,Al-Fe-O,3,Al2FeO4
2.9315,Al-Fe-O,3,Al2FeO4
1.982,Al-Fe-H-O-P,5,Al2FeP2(HO)18
4.0407,Al-Fe-H-O-P,5,Al2FeP2(HO)18
0.0,Al-Fe-H-O-P,5,Al2FeP2(HO)18
0.0,Al-Fe-Rh,3,Al2FeRh
0.0,Al-Fe-S,3,Al2FeS4
0.6271000000000004,Al-Fe-S,3,Al2FeS4
5.0458,Al-Ga-O-P,4,Al2Ga(PO4)3
2.7318,Al-Bi-Ga-O,4,Al2Ga2Bi2O9
2.9935000000000005,Al-Bi-Ga-O,4,Al2Ga2Bi2O9
3.1754,Al-Ga-N,3,Al2GaN3
3.8758,Al-Ge-H-O,4,Al2Ge(HO3)2
4.0658,Al-F-Ge-O,4,Al2Ge(O2F)2
3.4098,Al-Ge-O,3,Al2Ge2O7
0.0,Al-Ge-O,3,Al2GeO6
1.3461,Al-Hg-O,3,Al2HgO4
1.3048999999999995,Al-Hg-S,3,Al2HgS4
2.0244000000000004,Al-Hg-S,3,Al2HgS4
0.3820999999999999,Al-Hg-Se,3,Al2HgSe4
1.4253999999999998,Al-Hg-Se,3,Al2HgSe4
1.1108000000000002,Al-Hg-Te,3,Al2HgTe4
2.1638,Al-In-N,3,Al2InN3
0.0,Al-Ir-Os,3,Al2IrOs
0.0,Al-Ir-Rh,3,Al2IrRh
0.0,Al-Ir-Ru,3,Al2IrRu
0.5063000000000004,Al-Mo-O,3,Al2Mo2O7
0.6497000000000002,Al-Mo-O,3,Al2Mo2O7
0.0,Al-C-Mo,3,Al2Mo3C
1.0073000000000008,Al-Ni-O,3,Al2Ni2O7
0.0,Al-Ni,2,Al2Ni3
0.0,Al-Ni-Pd,3,Al2Ni9Pd
0.0085999999999994,Al-N-Ni,3,Al2NiN3
0.0,Al-Ni-O,3,Al2NiO4
3.5218000000000007,Al-Ni-O,3,Al2NiO4
3.5985000000000005,Al-Ni-O,3,Al2NiO4
3.6370999999999993,Al-Ni-O,3,Al2NiO4
3.0794999999999995,Al-Ni-O,3,Al2NiO4
3.4756,Al-Ni-O,3,Al2NiO4
3.12,Al-Ni-O,3,Al2NiO4
0.0,Al-Ni-Os,3,Al2NiOs
0.0,Al-Ni-Pt,3,Al2NiPt
0.0,Al-Ni-Ru,3,Al2NiRu
0.0,Al-O,2,Al2O
0.2338000000000004,Al-O,2,Al2O3
5.853700000000001,Al-O,2,Al2O3
4.5868,Al-O,2,Al2O3
2.286,Al-O,2,Al2O3
3.7796,Al-O,2,Al2O3
0.0,Al-O,2,Al2O3
3.6167000000000007,Al-O,2,Al2O3
0.0050999999999996,Al-O,2,Al2O3
3.1918999999999995,Al-O,2,Al2O3
3.5091,Al-O,2,Al2O3
3.9999,Al-O,2,Al2O3
0.9567999999999994,Al-O,2,Al2O3
5.313199999999999,Al-O,2,Al2O3
4.8274,Al-O,2,Al2O3
4.843500000000001,Al-O,2,Al2O3
1.4376999999999995,Al-O,2,Al2O3
4.1416,Al-O,2,Al2O3
0.6822999999999997,Al-O,2,Al2O3
4.2487,Al-O,2,Al2O3
3.3432999999999997,Al-O,2,Al2O3
3.9762999999999993,Al-O,2,Al2O3
3.2219,Al-O,2,Al2O3
3.1115,Al-O,2,Al2O3
3.2993999999999994,Al-O,2,Al2O3
4.4553,Al-O,2,Al2O3
0.0491999999999999,Al-O,2,Al2O3
4.0173000000000005,Al-O,2,Al2O3
4.2347,Al-O,2,Al2O3
4.369999999999999,Al-O,2,Al2O3
5.6671,Al-O,2,Al2O3
4.205500000000001,Al-O,2,Al2O3
4.176499999999999,Al-O,2,Al2O3
5.4924,Al-O,2,Al2O3
4.0029,Al-O,2,Al2O3
5.2156,Al-O,2,Al2O3
5.4415,Al-O,2,Al2O3
5.0606,Al-O,2,Al2O3
4.8041,Al-O,2,Al2O3
0.2898999999999994,Al-Os,2,Al2Os
0.0,Al-Os-Rh,3,Al2OsRh
0.0,Al-Os-Ru,3,Al2OsRu
6.2699,Al-H-O-P,4,Al2P3(HO3)3
5.2448,Al-H-O-P,4,Al2PH3O7
0.0,Al-O-P,3,Al2PO7
0.7301000000000002,Al-N-Pb,3,Al2Pb3N4
3.9425,Al-O-Pb,3,Al2PbO4
2.5904,Al-Pb-S,3,Al2PbS4
2.5214,Al-Pb-Se,3,Al2PbSe4
1.9961,Al-Pb-Se,3,Al2PbSe4
0.0,Al-Pd,2,Al2Pd
0.0,Al-Pd-Ru,3,Al2PdRu
0.0,Al-Pt,2,Al2Pt
0.0,Al-B-Re,3,Al2Re3B
0.0,Al-Ru,2,Al2Ru
0.0863999999999993,Al-Ru,2,Al2Ru
0.0,Al-Pt-Ru,3,Al2RuPt
0.0,Al-Rh-Ru,3,Al2RuRh
2.4329,Al-S,2,Al2S3
3.0435000000000003,Al-S,2,Al2S3
0.0002999999999993,Al-O-Sb,3,Al2Sb2O7
1.8004000000000002,Al-Se,2,Al2Se3
0.9578000000000002,Al-Se,2,Al2Se3
5.6953,Al-F-O-Si,4,Al2Si(O2F)2
0.0658999999999999,Al-C-N-O-Si,5,Al2Si2CNO10
4.506500000000001,Al-H-O-Si,4,Al2Si2H4O9
4.2256,Al-H-O-Si,4,Al2Si2H4O9
4.9663,Al-H-O-Si,4,Al2Si2H4O9
4.866300000000001,Al-H-O-Si,4,Al2Si2H4O9
5.161,Al-H-O-Si,4,Al2Si2H4O9
4.9007000000000005,Al-H-O-Si,4,Al2Si2H4O9
0.0,Al-H-O-Si,4,Al2Si2H4O9
4.9329,Al-H-O-Si,4,Al2Si2H4O9
0.0,Al-O-Si,3,Al2Si2O11
1.603,Al-O-Si,3,Al2Si2O7
5.0535000000000005,Al-O-Si,3,Al2Si2O7
0.0,Al-O-Si,3,Al2Si2O9
0.2409999999999999,Al-O-Si,3,Al2Si2O9
0.3175,Al-O-Si,3,Al2Si2O9
0.0594,Al-O-Si,3,Al2Si2O9
4.296,Al-O-Pb-Si,4,Al2Si2PbO8
0.0,Al-Mo-Si,3,Al2Si4Mo3
4.1738,Al-O-Si,3,Al2Si4O11
0.0,Ag-Al-Si,3,Al2SiAg7
4.8382000000000005,Al-O-Si,3,Al2SiO5
4.992799999999999,Al-O-Si,3,Al2SiO5
5.4038,Al-O-Si,3,Al2SiO5
4.0672,Al-O-Si,3,Al2SiO5
5.389900000000001,Al-O-Si,3,Al2SiO5
5.4621,Al-O-Si,3,Al2SiO5
0.0,Al-O-Si,3,Al2SiO6
0.0,Al-Sn,2,Al2Sn
1.3515999999999997,Al-O-Sn,3,Al2Sn2O7
0.0,Al-O-Tc,3,Al2Tc2O5
0.0,Al-Pd-Tc,3,Al2TcPd
1.3615000000000004,Al-Te,2,Al2Te3
0.6829999999999998,Al-Te,2,Al2Te3
2.7781,Al-O-Te,3,Al2Te4O11
1.0734000000000004,Al-Te,2,Al2Te5
0.0,Al-O-S-Te,4,Al2TeSO9
0.0,Al-O-V,3,Al2V2O7
0.0,Al-Ni-V,3,Al2VNi9
0.0,Al-O-V,3,Al2VO7
0.0,Al-W,2,Al2W
1.0333999999999994,Al-O-W,3,Al2W2O7
1.8039,Al-O-W,3,Al2W2O7
0.0,Al-O-W,3,Al2W5O16
0.0,Al-Zn,2,Al2Zn
1.7622,Al-S-Se-Zn,4,Al2Zn(SeS)2
2.3719,Al-S-Se-Zn,4,Al2Zn(SeS)2
0.9875999999999996,Al-S-Zn,3,Al2Zn2S5
0.0444000000000004,Al-S-Zn,3,Al2Zn2S5
1.1242,Al-S-Zn,3,Al2Zn2S5
1.5385999999999995,Al-S-Zn,3,Al2Zn2S5
0.0416999999999996,Al-S-Zn,3,Al2Zn2S5
3.5602,Al-S-Zn,3,Al2Zn2S5
1.0513999999999997,Al-N-Zn,3,Al2Zn3N4
3.846,Al-O-Zn,3,Al2ZnO4
3.0302999999999995,Al-O-Zn,3,Al2ZnO4
0.0,Al-S-Zn,3,Al2ZnS4
3.0979,Al-S-Zn,3,Al2ZnS4
0.4488000000000003,Al-S-Zn,3,Al2ZnS4
1.3945,Al-S-Zn,3,Al2ZnS4
0.2038999999999999,Al-S-Zn,3,Al2ZnS4
0.4119999999999999,Al-S-Zn,3,Al2ZnS4
1.7538999999999998,Al-S-Zn,3,Al2ZnS4
1.5436,Al-S-Zn,3,Al2ZnS4
2.4934000000000003,Al-S-Zn,3,Al2ZnS4
1.3788999999999998,Al-Se-Zn,3,Al2ZnSe4
0.8803999999999998,Al-Se-Zn,3,Al2ZnSe4
2.1529,Al-Se-Zn,3,Al2ZnSe4
1.6250999999999998,Al-Te-Zn,3,Al2ZnTe4
0.0,Al-B-Ru,3,Al3(BRu2)2
0.0,Al-B-Co,3,Al3(Co10B3)2
0.0,Al-Mo-S,3,Al3(MoS2)8
0.0,Al-B-Ni,3,Al3(Ni10B3)2
0.0,Al-F-O,3,Al3(O2F)2
0.0,Al-O-Si,3,Al3(SiO5)2
0.0,Al-C-V,3,Al3(V3C2)4
0.0,Ag-Al,2,Al3Ag
0.0,Al-As,2,Al3As
0.0,Al-Au,2,Al3Au
0.4530000000000003,Al-B-C,3,Al3BC
1.7548000000000004,Al-B-C,3,Al3BC3
1.8203,Al-B-C,3,Al3BC3
3.3606000000000007,Al-B-N,3,Al3BN4
4.162300000000001,Al-B-Bi-O,4,Al3Bi(BO3)4
0.0,Al-Cd,2,Al3Cd
0.0,Al-C-Co-W,4,Al3Co(W3C)3
0.0,Al-Co-Si,3,Al3Co3Si4
0.0,Al-Cr,2,Al3Cr
0.0,Al-Cr-Si,3,Al3Cr20Si9
0.0,Al-Cr-O-Sb,4,Al3Cr3(SbO8)2
3.8929,Al-Cr-O,3,Al3CrO6
3.3694000000000006,Al-Cr-O,3,Al3CrO6
0.0,Al-Cu,2,Al3Cu
0.0,Al-Cu,2,Al3Cu2
0.0,Al-Fe,2,Al3Fe
0.0,Al-Fe-Si,3,Al3Fe2Si
0.0,Al-Fe-Si,3,Al3FeSi2
0.0,Al-Ga,2,Al3Ga
0.0,Al-Ga-Ni,3,Al3Ga3Ni10
3.349899999999999,Al-Ga-N,3,Al3GaN4
3.4096,Al-Ga-N,3,Al3GaN4
0.0,Al-Ge,2,Al3Ge
0.0,Al-Ge-Pd,3,Al3GePd4
0.0,Al-Ge-W,3,Al3GeW2
0.0,Al-H,2,Al3H
0.0,Al-Ir,2,Al3Ir
0.0,Al-Mo,2,Al3Mo
4.146599999999999,Al-N-O,3,Al3NO3
4.0829,Al-N-O,3,Al3NO3
0.0,Al-Ni,2,Al3Ni
0.0,Al-Ni,2,Al3Ni2
0.0,Al-Ni-Pt,3,Al3Ni2Pt
0.0,Al-Ni,2,Al3Ni5
0.0,Al-C-Ni,3,Al3Ni9C
0.0,Al-Mo-Ni,3,Al3NiMo12
0.0,Al-Os,2,Al3Os2
0.0,Al-P,2,Al3P
0.0131000000000001,Al-H-O-P,4,Al3P2(H4O7)2
0.0,Al-Pd,2,Al3Pd
0.0,Al-Pd,2,Al3Pd2
0.0,Al-Pd,2,Al3Pd5
0.0,Al-Pt,2,Al3Pt
0.0,Al-Pt,2,Al3Pt2
0.0,Al-Pt,2,Al3Pt5
0.0,Al-Ru,2,Al3Ru
0.0,Al-Ru,2,Al3Ru2
5.476000000000001,Al-H-O-Si,4,Al3Si2H3O10
0.0,Al-Mo-Si,3,Al3SiMo12
0.0,Al-Pd-Si,3,Al3SiPd4
0.0,Al-Sn,2,Al3Sn
0.0,Al-Tc,2,Al3Tc
0.0,Al-Tc,2,Al3Tc2
0.0,Al-Tl,2,Al3Tl
0.0,Al-V,2,Al3V
0.0,Al-C-W,3,Al3W3C4
0.0,Al-C-W,3,Al3WC4
0.0,Al-Zn,2,Al3Zn
0.0,Al-Cr-Zn,3,Al3ZnCr8
0.0,Al-Ni-Zn,3,Al3ZnNi12
5.8173,Al-B-O,3,Al4(B2O5)3
0.0,Al-Co-O,3,Al4(CoO4)3
0.0,Al-Fe-O,3,Al4(FeO4)3
0.0,Al-Ni-O,3,Al4(NiO4)3
0.0,Al-As-O,3,Al4As3O23
3.2355,Al-B-O,3,Al4B2O9
2.8002,Al-Bi-O,3,Al4Bi2O9
1.3154000000000003,Al-C,2,Al4C3
0.0,Al-C,2,Al4C3
0.1347,Al-C-N-O,4,Al4CN3O
0.0,Al-C-O,3,Al4CO
3.8233,Al-C-O,3,Al4CO4
3.0642,Al-Cd-O,3,Al4CdO7
1.7495000000000005,Al-B-Co-O,4,Al4Co(BO5)2
0.0,Al-Cr-Ni,3,Al4CrNi15
0.0,Al-Cr-S,3,Al4CrS8
0.0,Al-Cu,2,Al4Cu15
0.0,Al-Cu-O,3,Al4Cu2O7
0.0,Al-Fe-O-Si,4,Al4Fe(SiO6)2
0.7703000000000002,Al-Cu-Fe-H-O-P,6,Al4Fe2CuP4(H8O13)2
0.0,Al-Fe-Rh,3,Al4Fe5Rh
0.9859999999999998,Al-Ga-Sb,3,Al4GaSb5
0.0,Al-Ge-W,3,Al4Ge2W3
1.3302999999999994,Ag-Al-In-S,4,Al4InAgS8
0.6835,Ag-Al-In-Se,4,Al4InAgSe8
0.3960999999999997,Ag-Al-In-Te,4,Al4InAgTe8
1.1498,Al-Cu-In-S,4,Al4InCuS8
0.0,Al-Mo,2,Al4Mo
0.0,Al-C-Ni,3,Al4Ni12C
0.0,Al-Ni,2,Al4Ni15
0.0,Al-Ge-Ni,3,Al4Ni15Ge
0.0,Al-Ni-Sb,3,Al4Ni15Sb
0.0,Al-Ni-Sn,3,Al4Ni15Sn
0.0,Al-Ni-Pt,3,Al4Ni3Pt
5.5706,Al-H-O-P,4,Al4P3(HO5)3
0.0,Al-Si,2,Al4Si
5.429900000000001,Al-F-H-O-Si,5,Al4Si2H(O3F)3
5.355500000000001,Al-F-H-O-Si,5,Al4Si2H(O3F)3
0.0,Al-Mo-Si,3,Al4Si2Mo3
0.0,Al-C-Si,3,Al4SiC4
1.2009,Al-C-Si,3,Al4SiC4
0.0,Al-Pd-Si,3,Al4SiPd
0.0,Al-Tc,2,Al4Tc
0.0,Al-Ni-V,3,Al4VNi15
0.0,Al-W,2,Al4W
3.5397000000000003,Al-Cr-O-Zn,4,Al4Zn3Cr2O12
0.3208000000000002,Al-Co-O,3,Al5(CoO4)3
0.0190000000000001,Al-Co-O,3,Al5(CoO4)3
0.0,Al-Cu-O,3,Al5(CuO4)3
1.1491999999999996,Al-Fe-O,3,Al5(FeO4)3
0.9984000000000002,Al-Fe-O,3,Al5(FeO4)3
2.0496,Al-Fe-O,3,Al5(FeO4)3
0.0,Al-Ni-O,3,Al5(NiO4)3
1.5406000000000004,Ag-Al-S,3,Al5AgS8
4.9385,Al-B-O,3,Al5BO9
0.0,Al-Bi-N,3,Al5BiN4
0.0,Al-C-F-N,4,Al5C2N6F17
1.4427000000000003,Al-C-N,3,Al5C3N
0.8374000000000006,Al-C-N,3,Al5C3N
0.0,Al-Co,2,Al5Co2
0.0,Al-Cu-Mo,3,Al5CuMo2
1.4217000000000004,Al-Cu-S,3,Al5CuS8
0.5045999999999999,Al-Cu-Se,3,Al5CuSe8
0.0,Al-Cu-W,3,Al5CuW2
0.0,Al-Fe-Ni,3,Al5FeNi
4.7661,Al-H-O,3,Al5HO8
4.3283000000000005,Al-H-O,3,Al5HO8
0.0,Al-Mo,2,Al5Mo
0.0,Al-O,2,Al5O8
0.0,Al-Re,2,Al5Re24
0.0,Al-Rh,2,Al5Rh2
0.0,Al-S,2,Al5S8
0.0,Al-O-Sb,3,Al5Sb3O16
0.0,Al-Se,2,Al5Se8
0.0,Al-W,2,Al5W
0.1153999999999992,Al-C-N,3,Al6C3N2
0.3068999999999997,Al-C-N,3,Al6C3N2
0.0,Al-C-O,3,Al6CO7
2.7127,Al-Cd-O-S,4,Al6Cd4SO12
2.5652,Al-Cd-O-Te,4,Al6Cd4TeO12
0.0,Al-Co-Cu,3,Al6CoCu3
0.4880999999999997,Al-B-Cu-O,4,Al6Cu2B4O17
1.1467,Al-Cu-H-O-P,5,Al6CuP4(H4O7)4
0.0,Al-Fe,2,Al6Fe
0.4901,Al-Ge,2,Al6Ge5
0.0,Al-Ge-W,3,Al6GeW
0.0,Al-Re,2,Al6Re
0.0,Al-Ru,2,Al6Ru
0.0,Al-Tc,2,Al6Tc
2.2371000000000003,Al-N-W,3,Al6W5N16
0.0,Al-C-N,3,Al7(CN)3
2.5541,Al-Bi-Cr-O,4,Al7Cr(Bi2O9)2
1.5203000000000009,Al-O-Si,3,Al8(SiO6)3
0.0,Al-B-C,3,Al8BC5
0.0,Al-C-N,3,Al8C3N4
0.0,Al-Cr-Si,3,Al8Cr4Si3
0.0,Al-Cr,2,Al8Cr5
0.0,Al-Fe,2,Al8Fe5
0.0,Al-Mo,2,Al8Mo3
0.0,Al-V,2,Al8V5
0.0,Al-Co,2,Al9Co2
3.9466,Al-B-Cr-O,4,Al9Cr(BO9)2
0.0,Al-Cr-Si,3,Al9Cr3Si
0.0,Al-Fe,2,Al9Fe2
0.2090000000000005,Al-Fe-O-Si,4,Al9Fe2(SiO6)4
0.3811,Al-Fe-H-O-Si,5,Al9Fe2Si4HO24
0.0,Al-Ir,2,Al9Ir2
0.0,Al-Rh,2,Al9Rh2
4.973700000000001,Al-B-O-Si,4,Al9Si2BO19
0.0,Al-C-N-Si,4,Al9SiC7N
0.0,Ag-Al,2,AlAg
1.6205999999999996,Ag-Al-P-Se,4,AlAg(PSe3)2
1.5724,Ag-Al-O-W,4,AlAg(WO4)2
1.5337999999999994,Ag-Al-O-W,4,AlAg(WO4)2
0.0,Ag-Al,2,AlAg2
0.0,Ag-Al,2,AlAg3
0.2680999999999999,Ag-Al-F,3,AlAg3F6
0.0,Ag-Al,2,AlAg4
0.0,Ag-Al-B,3,AlAgB
2.4951,Ag-Al-F,3,AlAgF4
1.0623,Ag-Al-O,3,AlAgO2
0.8251999999999997,Ag-Al-O,3,AlAgO2
1.4090999999999996,Ag-Al-O,3,AlAgO2
0.0,Ag-Al-O,3,AlAgO3
0.0622,Ag-Al-O,3,AlAgO3
0.0480999999999998,Ag-Al-O,3,AlAgO3
0.032,Ag-Al-O,3,AlAgO3
1.6349999999999998,Ag-Al-S,3,AlAgS2
1.8992,Ag-Al-S,3,AlAgS2
1.7077,Ag-Al-S,3,AlAgS2
1.1351999999999998,Ag-Al-Se,3,AlAgSe2
1.1072000000000002,Ag-Al-Se-Sn,4,AlAgSnSe4
1.0469000000000004,Ag-Al-Te,3,AlAgTe2
0.0,Al-As,2,AlAs
1.5036999999999998,Al-As,2,AlAs
1.6869999999999998,Al-As,2,AlAs
0.3385000000000007,Al-As,2,AlAs
3.865,Al-As-O,3,AlAsO4
4.2634,Al-As-O,3,AlAsO4
0.0,Al-As-Pt,3,AlAsPt5
0.0,Al-Au,2,AlAu
0.0,Al-Au,2,AlAu2
0.0,Al-Au,2,AlAu3
0.0,Al-Au,2,AlAu4
0.5888,Al-Au-O,3,AlAuO2
0.0,Al-Au-O,3,AlAuO3
0.0,Al-B,2,AlB2
0.0,Al-B-Pb,3,AlB2Pb
3.5993000000000004,Al-B-N,3,AlB3N4
0.0,Al-B-Mo,3,AlBMo
3.0501000000000005,Al-B-N,3,AlBN2
5.8392,Al-B-O,3,AlBO3
3.0805,Al-B-O-Pb,4,AlBPbO4
0.0,Al-B-W,3,AlBW
0.0,Al-Bi,2,AlBi
2.3077,Al-Bi-O-W,4,AlBi(WO4)2
0.0,Al-Bi,2,AlBi3
1.5775999999999994,Al-Bi-N,3,AlBiN2
0.9480000000000004,Al-Bi-O,3,AlBiO3
0.7618,Al-Bi-O,3,AlBiO3
0.6410999999999998,Al-Bi-O,3,AlBiO3
0.0,Al-Bi-O,3,AlBiO3
1.5859999999999994,Al-Bi-O,3,AlBiO3
2.977899999999999,Al-Bi-O,3,AlBiO3
2.8885000000000005,Al-Bi-O,3,AlBiO3
3.0144,Al-Br-O,3,AlBrO
0.0,Al-Br-C-N-O,5,AlC2Br5(NO3)2
0.0,Al-C,2,AlC3
0.6016000000000001,Al-C-Cl-N,4,AlC4NCl2
0.4952999999999998,Al-C-Cl-N,4,AlC5NCl
0.606,Al-C-Cl-N,4,AlC5NCl
0.0,Al-C,2,AlC6
1.6946999999999997,Al-C-N,3,AlC6N
0.3063,Al-C-N-O,4,AlCNO5
0.0,Al-C-N-O,4,AlCNO5
0.0,Al-Cd,2,AlCd3
2.761,Al-Cd-Cl,3,AlCdCl4
0.0,Al-Cd-Cu-Se,4,AlCdCu3Se4
0.7454999999999998,Al-Cd-In-S,4,AlCdInS4
0.7791000000000001,Al-Cd-Sb-Te,4,AlCdSbTe
5.263,Al-Cl,2,AlCl3
0.0,Al-Cl,2,AlCl3
5.593999999999999,Al-Cl-O,3,AlClO
0.0,Al-Co,2,AlCo
0.0,Al-Co-F-O,4,AlCo(OF)6
0.0,Al-Co-O-W,4,AlCo(WO4)2
0.0282999999999997,Al-Co-O-W,4,AlCo(WO4)2
1.6189999999999998,Al-Co-O-W,4,AlCo(WO4)2
0.0,Al-Co-Ni,3,AlCo2Ni
0.0,Al-Co-Si,3,AlCo2Si
0.0,Al-Co,2,AlCo3
0.0,Al-C-Co,3,AlCo3C
1.8001000000000005,Al-Cl-Co-O-Se,5,AlCo3Se2ClO8
0.0,Al-Co,2,AlCo4
0.0,Al-Co-Cu-O,4,AlCo4(CuO4)3
3.2098,Al-Co-F,3,AlCoF5
0.0,Al-Co-N,3,AlCoN2
0.2140999999999999,Al-Co-F-N,4,AlCoNF6
0.0,Al-Co-Ni,3,AlCoNi6
2.5603000000000007,Al-Co-O,3,AlCoO3
0.0,Al-Co-O,3,AlCoO3
0.0510000000000001,Al-Co-O,3,AlCoO3
0.8939000000000004,Al-Co-O,3,AlCoO3
0.8609,Al-Co-O,3,AlCoO3
0.3481000000000005,Al-Co-O,3,AlCoO3
0.0,Al-Co-W,3,AlCoW
1.8845,Al-Cr-O-W,4,AlCr(WO4)2
1.5151000000000003,Al-Cr-O-W,4,AlCr(WO4)2
1.8873000000000009,Al-Cr-O-W,4,AlCr(WO4)2
0.0,Al-Cr,2,AlCr2
0.0,Al-C-Cr,3,AlCr2C
0.0,Al-Cr-N,3,AlCr2N3
0.0,Al-Cr-O,3,AlCr2O4
2.089600000000001,Al-Cr-O,3,AlCr2O4
0.0,Al-B-Cr,3,AlCr3B4
1.1429,Al-Cr-O,3,AlCr3O6
0.0,Al-Cr-O,3,AlCr3O8
0.0,Al-Cr-Mo-Si,4,AlCr3SiMo3
0.0,Al-Cr-Cu-O,4,AlCr4(CuO4)3
0.0,Ag-Al-Cr-S,4,AlCr4AgS8
0.0,Al-Cr-Cu-S,4,AlCr4CuS8
0.0,Al-Cr-Cu-Se,4,AlCr4CuSe8
0.0,Al-C-Cr-Ga,4,AlCr4GaC2
0.0,Al-Cr-Si,3,AlCr6Si
0.0,Al-Co-Cr,3,AlCrCo2
0.0,Al-Cr-Cu,3,AlCrCu2
2.4445,Al-Cr-F,3,AlCrF5
0.0,Al-Cr-Fe,3,AlCrFe2
1.4767,Al-Cr-Fe-O,4,AlCrFeO4
0.0,Al-Cr-Ge,3,AlCrGe
0.0,Al-Cr-N,3,AlCrN2
0.0,Al-Cr-Ni,3,AlCrNi
0.0,Al-Cr-Ni,3,AlCrNi2
1.1578,Al-Cr-O,3,AlCrO3
1.8028999999999995,Al-Cr-O,3,AlCrO3
0.0,Al-Cr-O,3,AlCrO3
0.0,Al-Cr-O,3,AlCrO4
0.0,Al-Cr-Ru,3,AlCrRu2
0.0,Al-Cu,2,AlCu
0.8799000000000001,Al-Cu-P-Se,4,AlCu(PSe3)2
1.1739999999999997,Al-Cu-O-W,4,AlCu(WO4)2
0.8695000000000004,Al-Cu-O-W,4,AlCu(WO4)2
0.0,Al-As-Cu-O,4,AlCu2AsO12
0.0,Al-Cu,2,AlCu3
0.0,Ag-Al-Cu-O,4,AlCu3(AgO3)4
0.0,Al-Bi-Cu-O,4,AlCu3(BiO3)4
0.0,Al-Cu-Mo-O,4,AlCu3(MoO3)4
0.0,Al-Cu-Ni-O,4,AlCu3(NiO3)4
0.0,Al-Cu-O-Sb,4,AlCu3(SbO3)4
0.0,Al-Cu-O-Sn,4,AlCu3(SnO3)4
0.0,Al-Cu-O-W,4,AlCu3(WO3)4
0.0,Al-Cu-Hg-Se,4,AlCu3HgSe4
1.2412999999999998,Al-Cu-Pb-Se,4,AlCu3PbSe4
0.0,Al-Cu,2,AlCu4
0.0,Al-Cu-O,3,AlCu7O12
0.4476,Al-As-Cu-O,4,AlCuAsO5
0.0,Al-Au-Cu,3,AlCuAu2
2.1451,Al-Br-Cu,3,AlCuBr4
2.5112000000000005,Al-Cl-Cu,3,AlCuCl4
0.0,Al-Cu-F,3,AlCuF5
0.8904999999999998,Al-Cu-Ge-Se,4,AlCuGeSe4
0.0,Al-Cu-Ni,3,AlCuNi6
1.8148,Al-Cu-O,3,AlCuO2
1.7978000000000005,Al-Cu-O,3,AlCuO2
0.1349,Al-Cu-O,3,AlCuO3
0.0,Al-Cu-O,3,AlCuO3
0.0,Al-Cu-F-O,4,AlCuO4F
0.0,Al-Cu-Pd,3,AlCuPd2
0.0,Al-Cu-Pt,3,AlCuPt2
0.0,Al-Cu-Rh,3,AlCuRh2
0.0,Al-Cu-S,3,AlCuS2
1.2542999999999995,Al-Cu-S,3,AlCuS2
1.6756000000000002,Al-Cu-S,3,AlCuS2
0.0,Al-Cu-Se,3,AlCuSe2
0.8921999999999999,Al-Cu-Se,3,AlCuSe2
1.2404000000000002,Al-Cu-S-Se,4,AlCuSeS
0.7126999999999999,Al-Cu-S-Sn,4,AlCuSnS4
0.5512999999999999,Al-Cu-Se-Sn,4,AlCuSnSe4
0.0,Al-Cu-Te,3,AlCuTe2
1.0186000000000002,Al-Cu-Te,3,AlCuTe2
7.4257,Al-F,2,AlF3
7.4904,Al-F,2,AlF3
7.4905,Al-F,2,AlF3
7.4507,Al-F,2,AlF3
7.4477,Al-F,2,AlF3
7.6012,Al-F,2,AlF3
7.4176,Al-F,2,AlF3
7.523099999999999,Al-F,2,AlF3
6.7775,Al-F,2,AlF3
7.420299999999999,Al-F,2,AlF3
0.0,Al-Fe,2,AlFe
1.2089999999999996,Al-Fe-O-W,4,AlFe(WO4)2
2.3215,Al-Fe-O-W,4,AlFe(WO4)2
0.0,Al-Fe,2,AlFe2
2.8114,Al-B-Fe-O,4,AlFe2BO5
0.0,Al-Fe-Ge,3,AlFe2Ge
0.0,Al-Fe-Mo,3,AlFe2Mo
0.0,Al-Fe-N,3,AlFe2N3
0.0,Al-Fe-Ni,3,AlFe2Ni
0.0,Al-Fe-Si,3,AlFe2Si
0.0,Al-Fe-W,3,AlFe2W
0.0,Al-Fe,2,AlFe3
0.0,Al-B-Fe,3,AlFe3B
0.0,Al-C-Fe,3,AlFe3C
0.0,Al-F-Fe,3,AlFe3F15
0.0,Al-Fe-H,3,AlFe3H
0.0,Al-Fe-N,3,AlFe3N
0.0,Al-Fe-O,3,AlFe3O
2.3191,Al-Cl-Fe-O-Se,5,AlFe3Se2ClO8
0.0,Al-Fe,2,AlFe4
0.0,Al-Cu-Fe-O,4,AlFe4(CuO4)3
0.0047000000000001,Al-F-Fe-Hg-O,5,AlFe4Hg2O2F
1.932,Al-B-Fe-O-Pb,5,AlFeB2(PbO4)2
0.0,Al-Co-Fe,3,AlFeCo2
4.2584,Al-F-Fe,3,AlFeF5
0.0,Al-Fe-Ir,3,AlFeIr2
0.0,Al-Fe-N,3,AlFeN2
2.1792,Al-Fe-O,3,AlFeO3
1.3295000000000003,Al-Fe-O,3,AlFeO3
1.3607999999999991,Al-Fe-O,3,AlFeO3
1.3457999999999997,Al-Fe-O,3,AlFeO3
0.0,Al-Fe-O,3,AlFeO3
1.6518000000000006,Al-Fe-O,3,AlFeO3
2.1089,Al-Fe-O,3,AlFeO3
3.5128,Al-Fe-O-P,4,AlFePO5
0.0,Al-Fe-Rh,3,AlFeRh2
1.1429,Al-Cu-Ga-S,4,AlGa(CuS2)2
0.4356,Al-Cu-Ga-Se,4,AlGa(CuSe2)2
4.8858,Al-Ga-O-P,4,AlGa(PO4)2
3.9445,Al-B-Bi-Ga-O,5,AlGa2Bi(BO3)4
0.0,Al-Ga,2,AlGa3
2.1808,Al-Ga-N,3,AlGa3N4
2.2393,Al-Ga-N,3,AlGa3N4
0.7004999999999999,Al-As-Ga,3,AlGaAs2
0.0,Al-Co-Ga,3,AlGaCo2
1.0530000000000002,Al-As-Cu-Ga-O,5,AlGaCu2(AsO5)2
0.7461000000000002,Al-Cu-Ga-S-Se,5,AlGaCu2(SeS)2
0.0,Al-Ga-Ir,3,AlGaIr2
2.6642,Al-Ga-N,3,AlGaN2
2.7200000000000006,Al-Ga-N,3,AlGaN2
0.0,Al-Ga-Ni,3,AlGaNi2
0.0,Al-Ga-Ni,3,AlGaNi6
2.6071,Al-Ga-O,3,AlGaO3
3.1117000000000004,Al-Ga-O,3,AlGaO3
3.2132,Al-Ga-O,3,AlGaO3
1.6344000000000003,Al-Ga-P,3,AlGaP2
0.0,Al-Ga-Ru,3,AlGaRu2
0.1727000000000007,Al-Ga-Sb,3,AlGaSb2
0.0,Al-Ge,2,AlGe3
0.0,Al-Ge-Mo,3,AlGe3Mo2
0.0,Al-Ge-Mo,3,AlGeMo
0.0,Al-Ge-Ru,3,AlGeRu2
0.0,Al-H,2,AlH12
5.1391,Al-Cl-H-O,4,AlH12(ClO2)3
5.861000000000001,Al-F-H-N,4,AlH12(NF2)3
6.3213,Al-F-H-O,4,AlH12(OF)5
4.4686,Al-F-H-O,4,AlH12(OF)5
7.0013000000000005,Al-C-F-H-N,5,AlH12C4NF4
4.6703,Al-F-H-O-Pb,5,AlH2Pb3OF9
4.496700000000001,Al-F-H-O-Pb,5,AlH2PbO2F3
3.1107,Al-H,2,AlH3
3.0448,Al-H,2,AlH3
2.1977,Al-H,2,AlH3
3.1862000000000004,Al-H,2,AlH3
0.0,Al-H-O-Se,4,AlH4(SeO4)2
6.8114,Al-F-H-N,4,AlH4NF4
4.4382,Al-H-O-Se,4,AlH5(SeO4)2
4.837899999999999,Al-Br-H-O,4,AlH6BrO4
5.1309000000000005,Al-Cl-H-O,4,AlH6ClO4
4.2593,Al-H-I-O,4,AlH6IO4
5.8135,Al-F-H-N,4,AlH6N2F3
5.326700000000001,Al-C-Cl-H-N,5,AlH8C3NCl2
5.9138,Al-H-O,3,AlHO2
5.6572000000000005,Al-H-O,3,AlHO2
5.286,Al-H-O,3,AlHO2
5.0197,Al-H-O,3,AlHO2
4.4054,Al-H-O,3,AlHO2
5.546000000000001,Al-H-O,3,AlHO2
5.495400000000001,Al-H-O,3,AlHO2
4.8339,Al-H-O,3,AlHO2
4.721100000000001,Al-H-O,3,AlHO2
5.6906,Al-H-O-S,4,AlHSO5
0.0,Al-F-Hg-O,4,AlHg2O2F5
0.0,Al-F-Hg-O,4,AlHg3(OF3)2
0.0,Al-I-N-O,4,AlI2NO15
0.0,Al-I-N,3,AlI3N5
2.291,Al-Cl-I,3,AlICl6
1.6932,Al-I-O,3,AlIO
1.0686,Ag-Al-In-S,4,AlIn(AgS2)2
0.5087999999999999,Ag-Al-In-Se,4,AlIn(AgSe2)2
0.7319999999999993,Al-Cu-In-S,4,AlIn(CuS2)2
0.2407000000000003,Al-Cu-In-Se,4,AlIn(CuSe2)2
0.8864999999999998,Al-In-N,3,AlIn2N3
0.0425000000000004,Al-Cu-In-Se,4,AlIn3(CuSe2)4
0.0,Al-Cu-In-Se,4,AlIn3(CuSe2)4
0.0,Al-B-In,3,AlInB
0.0,Al-Cu-In-O,4,AlInCuO4
0.0297999999999998,Al-Ga-In-Sb,4,AlInGaSb3
1.6253000000000002,Al-In-N,3,AlInN2
1.5194,Al-In-N,3,AlInN2
2.2769999999999992,Al-In-O,3,AlInO3
0.0,Al-In-O,3,AlInO3
2.162,Al-In-O,3,AlInO3
0.2375999999999996,Al-In-Sb,3,AlInSb2
0.3185000000000002,Al-In-Sb,3,AlInSb2
0.0,Al-Ir,2,AlIr
0.0,Al-Ir-O,3,AlIrO3
1.4055999999999995,Al-Mo-O-W,4,AlMo(WO4)2
2.3592,Al-Mo-O-W,4,AlMo(WO4)2
0.0,Al-Mo,2,AlMo3
0.197,Al-Cl-Mo-O-Se,5,AlMo3Se2ClO8
0.1384999999999996,Al-Cl-Mo-O-Se,5,AlMo3Se2ClO8
1.4508,Al-Mo-N,3,AlMoN3
0.7347999999999999,Al-Mo-O,3,AlMoO3
1.4177,Al-Mo-O,3,AlMoO3
0.0,Al-Mo-O,3,AlMoO3
3.268700000000001,Al-N,2,AlN
4.417499999999999,Al-N,2,AlN
3.3056,Al-N,2,AlN
4.0467,Al-N,2,AlN
0.0,Al-F-N,3,AlNF4
0.0,Al-Ni,2,AlNi
1.2513999999999994,Al-Ni-O-W,4,AlNi(WO4)2
1.9588,Al-Ni-O-W,4,AlNi(WO4)2
0.0,Al-Ni-O-W,4,AlNi(WO4)2
0.0,Al-Ni,2,AlNi2
0.0,Al-As-Ni,3,AlNi2As
3.621100000000001,Al-B-Ni-O,4,AlNi2BO5
0.0,Al-Ni,2,AlNi3
0.0,Al-C-Ni,3,AlNi3C
0.0,Al-Ni-Sb,3,AlNi3Sb
1.4528999999999996,Al-Cl-Ni-O-Se,5,AlNi3Se2ClO8
0.0,Al-As-Ni,3,AlNi4As3
0.0,Al-Ge-Ni,3,AlNi4Ge
0.0,Al-Ge-Ni,3,AlNi6Ge
0.0,Al-Ni-Pd,3,AlNi6Pd
0.0,Al-B-Ni,3,AlNi9B8
1.9697,Ag-Al-F-Ni,4,AlNiAg2F7
1.9441,Al-F-Ni,3,AlNiF5
0.0,Al-Ge-Ni,3,AlNiGe
0.0,Al-Ni-O,3,AlNiO3