eg,chemsys,nelements,formula
0.0,Ba-Fe-N,3,Ba8Fe3N8
0.0,Ba-Mn-N,3,Ba8Mn3N8
1.1637,Ba-Br-P,3,Ba8P5Br
0.0,Ac-Ba,2,BaAc3
0.0,Ag-Ba,2,BaAg
0.0,Ag-Ba,2,BaAg2
1.3289,Ag-Ba-Hg-O,4,BaAg2(HgO2)2
0.5960999999999999,Ag-Ba-Ge-S,4,BaAg2GeS4
0.0350000000000001,Ag-Ba-Ge-Se,4,BaAg2GeSe4
0.3679000000000001,Ag-Ba-S-Sn,4,BaAg2SnS4
0.0653999999999999,Ag-Ba-Se-Sn,4,BaAg2SnSe4
0.0,Ag-Ba-O,3,BaAg4O7
0.0,Ag-Ba,2,BaAg5
0.0,Ag-As-Ba,3,BaAgAs
0.0,Ag-Ba-Bi,3,BaAgBi
0.7334,Ag-Ba-O,3,BaAgO2
0.0,Ag-Ba-O,3,BaAgO2
0.1217000000000001,Ag-Ba-P,3,BaAgP
1.4324,Ag-Ba-F-S,4,BaAgSF
0.0,Ag-Ba-Sb,3,BaAgSb
0.0415,Ag-Ba-Sb,3,BaAgSb
1.2693,Ag-Ba-F-Se,4,BaAgSeF
1.5109999999999997,Ag-Ba-F-Te,4,BaAgTeF
0.0,Al-Ba,2,BaAl
0.0,Al-Ba,2,BaAl2
0.0115000000000002,Al-Ba-O-P,4,BaAl2(PO5)2
4.911300000000001,Al-Ba-O-Si,4,BaAl2(SiO4)2
4.3451,Al-Ba-O-Si,4,BaAl2(SiO4)2
4.6477,Al-B-Ba-O,4,BaAl2B2O7
3.9754,Al-Ba-O,3,BaAl2O4
3.9448,Al-Ba-O,3,BaAl2O4
0.1497,Al-Ba-O,3,BaAl2O6
0.0,Al-Ba-O,3,BaAl2O6
0.5491,Al-Ba-O,3,BaAl2O6
0.0,Al-Ba-O,3,BaAl2O8
3.4109000000000003,Al-Ba-O-Sb,4,BaAl2Sb2O7
3.5521000000000003,Al-Ba-N-O-Si,5,BaAl2Si3(NO)4
0.0242999999999999,Al-Ba-O-P,4,BaAl3(PO7)2
0.0027999999999999,Al-Ba-O-P,4,BaAl3(PO7)2
0.0,Al-Ba-H-O-P,5,BaAl3P2(HO7)2
0.0,Al-Ba,2,BaAl4
3.3158000000000003,Al-Ba-O-Sb,4,BaAl4(SbO6)2
0.0,Al-Ba-O,3,BaAl5O9
0.0,Al-Ba-Fe,3,BaAl9Fe2
0.0,Al-Ba-Ni,3,BaAl9Ni2
6.0472,Al-B-Ba-F-O,5,BaAlBO3F2
6.0642000000000005,Al-B-Ba-F-O,5,BaAlBO3F2
0.0,As-O-Pd,3,As2PdO6
0.0785,As-Pt,2,As2Pt
0.2625000000000002,As-Rh,2,As2Rh
0.4492000000000002,As-Ru,2,As2Ru
0.0,As-S,2,As2S
4.417199999999999,As-O-S,3,As2SO6
0.0,As-Se,2,As2Se
0.6002999999999998,As-Se,2,As2Se3
0.0,As-W,2,As2W
3.0666,As-H-O,3,As3(HO2)5
0.0267999999999997,As-Ir,2,As3Ir
3.2587,As-Br-O-Pb,4,As3Pb2BrO6
0.0,As-Pb-Pd,3,As3Pd4Pb
0.0,As-Rh,2,As3Rh
0.0,As-W,2,As3W
0.0,As-W,2,As3W2
0.0,As-Br-N-O,4,As4BrNO6
0.0,As-C,2,As4C3
0.0,As-Cl-H-N-O,5,As4HN2(ClO3)2
0.0,As-I-N-O,4,As4INO6
0.0,As-Cl-N-O,4,As4N2Cl2O7
0.0,As-P-Rh,3,As4PRh10
0.0,As-Pb-Pd,3,As4Pd5Pb
1.997,As-S,2,As4S5
0.0,As-Rh,2,As7Rh12
0.0,As-Au,2,AsAu3
0.3576999999999999,As-Au-O,3,AsAuO3
1.8671,As-Au-O,3,AsAuO4
1.1157,As-C-F-O,4,AsC2(OF3)2
0.2631,As-C-F-N-S,5,AsC2S3NF8
0.6292999999999997,As-C-F-O,4,AsC3OF6
2.8871,As-Cl-F,3,AsCl2F3
3.9873,As-Cl,2,AsCl3
1.4376,As-Cl,2,AsCl5
3.3906,As-Cl-F,3,AsClF8
5.359999999999999,As-F,2,AsF3
4.6002,As-F,2,AsF5
4.6288,As-F-H-N-S,5,AsH2SNF10
0.0,As-H,2,AsH3
4.9219,As-C-F-H-N-O,6,AsH3CNOF9
4.8445,As-F-H-O,4,AsH3OF6
2.7713,As-F-H-N,4,AsH4NF6
2.8242000000000003,As-F-H-N,4,AsH4NF6
5.0561,As-C-F-H-O,5,AsH5COF6
4.2445,As-H-N-O,4,AsH6NO4
4.1512,As-H-N-O,4,AsH6NO4
2.3233,As-H-N-O,4,AsH8NO4
3.0929,As-C-H-N-O-S,6,AsH9C2S(NO)4
3.1361000000000003,As-H-O-Pb,4,AsHPbO4
3.0015,As-H-O-Pb,4,AsHPbO4
2.2375000000000003,As-I,2,AsI3
1.8630000000000004,As-Ir-S,3,AsIrS
1.4699,As-Ir-Se,3,AsIrSe
2.7442,As-F-N-O,4,AsN(OF3)2
2.7607,As-F-N-O,4,AsN(OF3)2
2.6593,As-F-N-O,4,AsN(OF3)2
0.0,As-F-N,3,AsNF6
0.9988,As-N-O,3,AsNO4
3.4488,As-N-O,3,AsNO4
3.3759,As-O,2,AsO2
1.1795,As-Os-S,3,AsOsS
1.0029000000000003,As-Os-Se,3,AsOsSe
0.0,As-P,2,AsP
0.4581999999999997,As-P,2,AsP
1.3138,As-O-P-Pb,4,AsP3(PbO8)2
4.576,As-O-P,3,AsPO4
2.0204,As-O-P,3,AsPO5
0.7610999999999999,As-Os-P,3,AsPOs
0.7984,As-P-Pt,3,AsPPt
0.0,As-P-Rh,3,AsPRh4
0.4142999999999999,As-P-Ru,3,AsPRu
0.0,As-Cl-O-Pb,4,AsPb2Cl2O3
0.0,As-Pb,2,AsPb3
4.0652,As-F-Pb,3,AsPbF7
0.0,As-O-Pb,3,AsPbO4
0.0,As-Pd,2,AsPd2
0.0,As-Pd,2,AsPd3
0.0,As-Pb-Pd,3,AsPd3Pb2
0.0,As-Pd,2,AsPd4
0.0,As-Pd,2,AsPd5
0.0,As-Pb-Pd,3,AsPd6Pb
0.0,As-Pd-S,3,AsPdS
0.0,As-Pd-Se,3,AsPdSe
0.0,As-Pt,2,AsPt3
0.0,As-Pt-S,3,AsPtS
0.0,As-Rh,2,AsRh
0.0,As-Rh,2,AsRh2
0.0,As-O-Rh,3,AsRhO4
1.2237,As-Rh-S,3,AsRhS
0.9137000000000004,As-Rh-Se,3,AsRhSe
0.0,As-Ru,2,AsRu
0.9146,As-Ru-S,3,AsRuS
0.7335000000000003,As-Ru-Se,3,AsRuSe
0.0,As-S,2,AsS
2.0204,As-S,2,AsS
0.327,As-F-N-O-S,5,AsS2N2OF9
2.608,As-F-N-S,4,AsS2NF6
0.5874999999999999,As-F-N-S,4,AsS3(NF3)2
1.7123,As-F-N-S,4,AsS4N4F5
0.0,As-Br-Se,3,AsSeBr
1.2345000000000002,As-I-Se,3,AsSeI
1.9032,As-O-W,3,AsWO5
0.2682000000000002,As-F-O-Xe,4,AsXe2OF10
0.0,Au,1,Au
0.0207999999999999,Au-F-O,3,Au(OF3)2
0.0,Au-F-O,3,Au(OF3)2
0.1053000000000001,Au-F-O,3,Au(OF3)2
0.8689999999999998,Au-O,2,Au2O3
0.7390000000000003,Au-O,2,Au2O3
1.9091,Au-S,2,Au2S
1.1502,Au-O-Se,3,Au2Se2O7
0.9414,Au-O-Se,3,Au2Se3O10
0.0,Au-Br,2,Au3Br
0.0,Au-Cl,2,Au3Cl
0.3012999999999999,Au-F,2,Au3F8
0.0,Au-N,2,Au3N
0.0,Au-O,2,Au3O
0.0,Au-S,2,Au3S
1.6885,Au-Br,2,AuBr
1.9716,Au-Br,2,AuBr
0.0,Au-Br,2,AuBr2
0.0,Au-Br-N,3,AuBr3N2
0.0,Au-Br-N,3,AuBr4N
1.6361000000000003,Au-Br-F,3,AuBrF6
0.7129,Au-Br-O,3,AuBrO2
0.0,Au-Br-O,3,AuBrO2
0.0,Au-C,2,AuC
2.8504,Au-C,2,AuC2
3.6316,Au-C-N,3,AuC2N3
0.0,Au-Br-C-N-S,5,AuC2S2BrN4
1.7397,Au-C-N-O,4,AuC4(N2O)2
0.0,Au-C-N-O,4,AuC4(N2O)2
3.7403,Au-C-Cl-O,4,AuCClO
3.0723,Au-C-Cl-O,4,AuCClO
1.861,Au-C-N,3,AuCN
1.9497,Au-Cl,2,AuCl
0.0,Au-Cl,2,AuCl
1.296,Au-Cl,2,AuCl
1.9094,Au-Cl,2,AuCl
0.8978999999999999,Au-Cl,2,AuCl2
1.3606,Au-Cl,2,AuCl3
0.9762,Au-Cl-O,3,AuClO
0.2618,Au-Cl-O,3,AuClO2
0.8831,Au-Cl-O,3,AuClO2
0.8999,Au-Cl-O,3,AuClO2
1.5542,Au-F,2,AuF3
2.0942,Au-I,2,AuI
0.0,Au-I,2,AuI2
0.0,Au-N,2,AuN
0.0,Au-N,2,AuN2
0.0,Au-N-O,3,AuN7O9
0.0,Au-Cl-N,3,AuNCl4
0.9596,Au-F-O,3,AuO2F
0.0,Au-S,2,AuS
0.0,Au-S,2,AuS2
0.0,Au-Se,2,AuSe
0.2627999999999999,Au-Se,2,AuSe
1.3674,Au-Cl-O-Se,4,AuSeClO3
0.9278,Au-F-Xe,3,AuXeF9
0.0,B,1,B
1.5133,B,1,B
1.4333999999999998,B,1,B
0.1823000000000001,B-C-H,3,B(HC)2
4.79,B-H-O,3,B(HO)2
6.0572,B-H-O,3,B(HO)3
6.0809,B-H-O,3,B(HO)3
3.259,B-O-Pb,3,B10(Pb2O7)3
0.0,B-Rh,2,B11Rh18
1.7964000000000002,B-S,2,B12S
0.0,B-S,2,B12S
0.0,B-W,2,B12W
0.0,B-C,2,B13C2
0.0,B-N,2,B13N2
0.0,B-P,2,B13P
0.0,B-P,2,B13P2
1.8805,B-C-N,3,B2(CN2)3
2.5699,B-C-N,3,B2(CN2)3
2.5371,B-C-N,3,B2(CN2)3
2.2987,B-C-N,3,B2(CN2)3
1.517,B-C-N,3,B2(CN2)3
2.7396000000000003,B-C-N,3,B2(CN2)3
2.117,B-C-N,3,B2(CN2)3
1.9254999999999995,B-C-N,3,B2(CN2)3
0.1452,B-C-N,3,B2(CN2)3
2.4254,B-C-N,3,B2(CN2)3
2.4836,B-C-N,3,B2(CN2)3
0.0,B-C-N,3,B2(CN2)3
0.0,B-Ir-W,3,B20Ir4W5
0.0,B-Mo,2,B24Mo7
1.3755999999999995,As-B-P,3,B2AsP
0.0,Au-B,2,B2Au
0.0,B-C-N,3,B2CN
1.0153999999999996,B-C-N,3,B2CN2
3.8874,B-C-Cl-H-N-O,6,B2H10C2NClO3
4.0008,B-C-Cl-H-N-O,6,B2H10C2NClO3
0.0,B-C-Cl-H-N-O,6,B2H10C2NClO3
6.2615,B-H,2,B2H5
0.0,B-Cl-Ir,3,B2IrCl
0.0,B-Mo,2,B2Mo
0.0,B-Ir-Mo,3,B2Mo2Ir
0.0,B-Mo-Os,3,B2Mo2Os
0.0,B-Mo-Ru,3,B2Mo2Ru
0.0,B-Mo,2,B2Mo3
0.0,B-Mo-Ru,3,B2MoRu
0.0,B-O,2,B2O
6.3017,B-O,2,B2O3
8.3751,B-O,2,B2O3
0.0,B-Os,2,B2Os
0.0,B-Os-W,3,B2OsW2
2.719,B-O-Pb,3,B2Pb2O5
0.0,B-Pd,2,B2Pd5
0.7786,B-O-Pd,3,B2PdO4
0.0,B-Pt,2,B2Pt3
0.0,B-Ru,2,B2Ru
0.0,B-Ru-W,3,B2RuW
6.6956,B-O-S,3,B2S2O9
1.5315,B-S,2,B2S3
3.15,B-O-Te,3,B2TeO5
2.5855,B-O-Te,3,B2TeO6
0.0,B-W,2,B2W
0.1720999999999999,B-C-N,3,B3C10N3
5.4716000000000005,B-H-N,3,B3H12N
5.5239,B-H-N-O,4,B3H4NO5
3.8726,B-H,2,B3H5
4.5814,B-H-N,3,B3H5N3
4.0448,B-C-H-O,4,B3H7CO
1.4863,B-H-N,3,B3H7N
0.0,B-Ir,2,B3Ir2
0.0,B-Mo,2,B3Mo
0.0,B-Os,2,B3Os2
0.0,B-Rh,2,B3Rh7
0.0,B-Ru,2,B3Ru2
0.0,B-Ru,2,B3Ru7
3.0415,B-C,2,B4C
0.0,B-C,2,B4C
1.5149,B-C,2,B4C
4.0708,B-C-Cl-O,4,B4CCl6O
0.0,B-Mo,2,B4Mo
0.0,B-Ir-Mo,3,B4MoIr
0.0,B-Mo-Ru,3,B4MoRu2
0.7828999999999999,B-N-O,3,B4N2O11
0.0,B-Os,2,B4Os
0.0,B-Os-W,3,B4OsW
4.208499999999999,B-O-Pb,3,B4PbO7
0.0,B-Rh,2,B4Rh5
0.0,B-W,2,B4W
5.709300000000001,B-H,2,B5H9
0.0994999999999999,B-I,2,B5I
0.0,B-Ir-W,3,B5Ir3W2
0.0,B-Mo,2,B5Mo2
0.0,B-W,2,B5W2
2.6454000000000004,As-B,2,B6As
5.6566,B-H-N,3,B6H10N
5.2596,B-C-H-N,4,B6H13CN4
1.8564,B-O,2,B6O
2.4757,B-P,2,B6P
1.0871,B-H-N-O-P,5,B6P2H14N2O19
0.9206000000000004,B-Pb,2,B6Pb
0.0,B-O-Rh,3,B6RhO6
2.3696,B-O,2,B8O
2.2645,B-O,2,B8O
2.4459,B-O,2,B8O
2.3536,B-O,2,B8O
0.1845999999999996,B-P,2,B8P
0.0,B-Ru,2,B8Ru11
0.0,B-C,2,B9C
1.2036999999999995,As-B,2,BAs
1.1428000000000005,As-B,2,BAs
4.3662,As-B-F-H-N-O,6,BAsH4NO4F
3.8757,As-B-O,3,BAsO4
4.2615,As-B-O,3,BAsO4
3.3847,As-B-O-Pb,4,BAsPbO5
0.0,Au-B,2,BAu
0.0,Au-B,2,BAu3
0.0,Au-B-O,3,BAuO3
3.8273,B-Br,2,BBr3
0.0,B-C,2,BC
1.5215999999999994,B-C-N,3,BC2N
2.4682999999999997,B-C-N,3,BC2N
0.7324000000000002,B-C-N,3,BC2N
0.0,B-C-N,3,BC2N
2.1099,B-C-N,3,BC2N
1.661900000000001,B-C-N,3,BC2N
0.0,B-C,2,BC3
0.0,B-C,2,BC5
0.0,B-C,2,BC7
3.3203,B-Cl,2,BCl
1.6826,B-Cl-F-O,4,BCl(OF2)2
1.5295999999999998,B-Cl-F-O,4,BCl(OF2)2
4.7135,B-Cl,2,BCl3
3.3471,B-Cl-F,3,BClF6
4.8986,B-F,2,BF2
8.1347,B-F,2,BF3
8.2939,B-F,2,BF3
0.0,B-H,2,BH
3.0854,B-H-O-Pb,4,BH(PbO2)2
7.2814,B-C-F-H-N,5,BH10C3NF4
5.1176,B-Br-C-F-H-N,6,BH11C4BrNF4
6.373200000000001,B-C-Cl-F-H-N,6,BH11C4NClF4
5.645300000000001,B-C-H-N,4,BH12C3N
4.2447,B-C-H-N,4,BH17C5N2
4.8878,B-C-H-N,4,BH2CN
4.0087,B-C-H-O,4,BH2CO
7.567699999999999,B-F-H-O,4,BH2OF3
2.348,B-F-H-N-S,5,BH2S3N3F4
2.1892,B-F-H-N-S,5,BH2S3N3F4
5.3252,B-H,2,BH3
7.5583,B-F-H-N,4,BH3NF4
7.657299999999999,B-F-H-O,4,BH3OF4
6.3532,B-C-H-N,4,BH4C4N5
5.732799999999999,B-H-N,3,BH4N
7.481199999999999,B-F-H-N,4,BH4NF4
6.8268,B-F-H-O,4,BH4O2F3
6.5929,B-F-H-N,4,BH5(NF2)2
7.263999999999999,B-F-H-O,4,BH5(OF2)2
5.4699,B-C-H-N,4,BH5CN2
3.9122,B-C-H-N-S,5,BH5CSN2
5.4121,B-Cl-H-N,4,BH5NCl
4.3443000000000005,B-C-F-H-N,5,BH6C2N5F4
5.6634,B-C-F-H-N,5,BH6CN3F4
6.0173000000000005,B-H-N,3,BH6N
5.9894,B-H-N,3,BH6N
6.1085,B-H-N,3,BH6N
5.785299999999999,B-H-N,3,BH6N
5.5053,B-H-N,3,BH6N
2.6972,B-H-N,3,BH6N
6.2446,B-H-N,3,BH6N
5.9101,B-H-N,3,BH6N
6.158,B-C-H-N,4,BH8CN
5.6111,B-H-N,3,BH8N
5.2043,B-C-H-O,4,BH9(CO)3
5.7775,B-C-H-O,4,BH9(CO)3
6.2786,B-H-O,3,BHO2
6.3043,B-H-O,3,BHO2
2.6901,B-I,2,BI3
0.0,B-Ir,2,BIr
0.0,B-Ir-O,3,BIrO3
0.0,B-Ir-Pd,3,BIrPd
0.0,B-Mo,2,BMo
0.0,B-Mo,2,BMo2
0.0,B-C-Mo,3,BMo2C
0.0,B-C-Mo,3,BMoC
1.0201000000000002,B-Mo-N,3,BMoN3
0.0,B-Mo-W,3,BMoW
0.0,B-C-Mo-W,4,BMoWC
3.5086,B-N,2,BN
0.9469999999999992,B-N,2,BN
4.3887,B-N,2,BN
4.7783,B-N,2,BN
1.5671,B-N,2,BN
4.4506,B-N,2,BN
5.1976,B-N,2,BN
3.5767,B-N,2,BN
3.5892000000000004,B-N,2,BN
0.0,B-N,2,BN
4.3683,B-N,2,BN
3.9745,B-N,2,BN
5.7747,B-N,2,BN
3.2495000000000003,B-N,2,BN
2.8663,B-N,2,BN
3.9617,B-N,2,BN
4.273999999999999,B-N,2,BN
3.0022,B-F-N-O,4,BN(OF2)2
0.483,B-Cl-N,3,BN2Cl
2.8370999999999995,B-Cl-N,3,BNCl2
2.7231,B-F-N,3,BNF4
0.0,B-F-N,3,BNF4
3.0579,B-F-N,3,BNF8
2.9979,B-F-N,3,BNF8
0.0,B-F-O,3,BO2F3
0.0,B-O,2,BO3
0.0,B-Os,2,BOs
0.0,B-Os,2,BOs3
0.0,B-O-Os,3,BOsO3
1.0624000000000002,B-P,2,BP
1.2434999999999992,B-P,2,BP
5.8383,B-F-H-N-O-P,6,BPH4NO4F
6.998399999999999,B-O-P,3,BPO4
7.2565,B-O-P,3,BPO4
4.2593000000000005,B-O-P-Pb,4,BPPbO5
2.276,B-P-S,3,BPS4
0.0,B-Pb,2,BPb3
0.0,B-O-Pb,3,BPbO3
0.0,B-Pd,2,BPd2
0.0,B-Br-Pd,3,BPd2Br
0.0,B-Pd,2,BPd3
0.0,B-Pd,2,BPd4
0.0,B-Pd,2,BPd5
0.0,B-Pd,2,BPd6
0.0,B-O-Pd,3,BPdO3
0.0,B-Pt,2,BPt
0.0,B-Pt,2,BPt2
0.0,B-Pt,2,BPt3
0.0,B-O-Pt,3,BPtO3
0.0,B-Rh,2,BRh
0.0,B-Rh,2,BRh2
0.0,B-Ru,2,BRu
0.0,B-Ru,2,BRu3
4.9587,B-F-N-O-S,5,BS2N2OF7
4.9968,B-F-S,3,BSF7
0.7506000000000004,B-Sb,2,BSb
1.4054000000000002,B-O-Sb,3,BSbO3
3.762000000000001,B-O-Sb,3,BSbO3
3.4785000000000004,B-O-Sb,3,BSbO3
2.1522,B-Pb-S-Sb,4,BSbPbS4
0.0,B-Cl-Se,3,BSe2Cl
0.0,As-B-Te,3,BTe2As
0.0,B-O-Te,3,BTeO3
0.0,B-W,2,BW
0.0,B-W,2,BW2
0.9237000000000002,B-N-W,3,BW4N9
0.0,Ba,1,Ba
0.0,Ag-Ba-Ge,3,Ba(AgGe)2
1.7273,Ag-Ba-O,3,Ba(AgO)2
0.8761000000000001,Ag-Ba-S,3,Ba(AgS)2
0.0,Ag-Ba-Sn,3,Ba(AgSn)2
0.0,Al-Ba-Ga,3,Ba(AlGa)2
0.0,Al-Ba-Ge,3,Ba(AlGe)2
3.0544,Al-Ba-Se,3,Ba(AlSe2)2
0.0,Al-Ba-Si,3,Ba(AlSi)2
1.5046999999999997,Al-Ba-Te,3,Ba(AlTe2)2
0.1901000000000001,As-Ba-Pt,3,Ba(As3Pt2)2
0.0,As-Ba-Ru,3,Ba(As3Ru)4
2.7763,As-Ba-O,3,Ba(AsO3)2
0.0,As-Ba-Pd,3,Ba(AsPd)2
0.0,As-Ba-Rh,3,Ba(AsRh)2
0.0,As-Ba-Ru,3,Ba(AsRu)2
2.4882,Au-Ba-F,3,Ba(AuF4)2
1.4498000000000002,Au-Ba-O,3,Ba(AuO2)2
0.0,B-Ba-Pt,3,Ba(B2Pt3)2
0.0,B-Ba-Ir,3,Ba(BIr)2
0.6024,B-Ba-O,3,Ba(BO2)5
0.7895,B-Ba-O,3,Ba(BO2)5
0.0,B-Ba-Rh,3,Ba(BRh)2
2.7453000000000003,B-Ba-S,3,Ba(BS2)2
1.7096,B-Ba-Se,3,Ba(BSe3)2
1.1789999999999998,Ba-Be-N,3,Ba(BeN)2
0.0,Ba-Bi-O,3,Ba(BiO2)4
0.0,Ba-Bi-Pd,3,Ba(BiPd)2
3.2254,Ba-Br-F,3,Ba(BrF4)2
0.0,Ba-Br-O,3,Ba(BrO)2
4.3458,Ba-Br-O,3,Ba(BrO3)2
4.1953,Ba-Br-O,3,Ba(BrO3)2
2.5828,Ba-C-O,3,Ba(CO)4
0.0,Ba-C-O,3,Ba(CO2)2
3.2678,Ba-C-O,3,Ba(CO2)2
0.0,Ba-Cd-Pt,3,Ba(Cd2Pt)2
0.1575999999999999,As-Ba-Cd,3,Ba(CdAs)2
0.0,Ba-Cd-Ge,3,Ba(CdGe)2
0.6835999999999998,Ba-Cd-P,3,Ba(CdP)2
0.0,Ba-Cd-Sb,3,Ba(CdSb)2
0.0,Ba-Ce-S,3,Ba(CeS2)2
0.0,Ba-Cl-O,3,Ba(ClO)2
5.2826,Ba-Cl-O,3,Ba(ClO3)2
5.4454,Ba-Cl-O,3,Ba(ClO4)2
0.0,As-Ba-Co,3,Ba(CoAs)2
0.0,Ba-Co-Ge,3,Ba(CoGe)2
0.0,Ba-Co-N,3,Ba(CoN)2
0.0,Ba-Co-O,3,Ba(CoO2)4
0.0,As-Ba-Cr,3,Ba(CrAs)2
0.0,Ba-Cr-N,3,Ba(CrN)2
0.0,As-Ba-Cu,3,Ba(Cu2As)2
0.0,As-Ba-Cu,3,Ba(Cu2As)4
0.0,Ba-Cu-P,3,Ba(Cu2P)4
0.0,As-Ba-Cu,3,Ba(Cu3As)2
0.0,Ba-Cu-P,3,Ba(Cu5P2)2
0.0,As-Ba-Cu,3,Ba(CuAs)2
1.3863,Ba-Cu-O,3,Ba(CuO)2
0.0,Ba-Cu-O,3,Ba(CuO)4
0.0,Ba-Cu-P,3,Ba(CuP2)2
0.5011999999999999,Ba-Cu-S,3,Ba(CuS)2
0.9028,Ba-Cu-S,3,Ba(CuS)2
0.0,Ba-Cu-Sb,3,Ba(CuSb)2
0.3703000000000003,Ba-Cu-Se,3,Ba(CuSe)2
0.4887000000000006,Ba-Cu-Se,3,Ba(CuSe)2
0.0,As-Ba-Fe,3,Ba(FeAs)2
0.0,Ba-Fe-N,3,Ba(FeN)2
1.3402,Ba-Fe-O,3,Ba(FeO2)2
0.0,Ba-Fe-O,3,Ba(FeO2)2
0.0,Ba-Fe-O,3,Ba(FeO2)4
0.0,Ba-Fe-P,3,Ba(FeP)2
0.0,Ba-Fe-S,3,Ba(FeS2)2
0.0,Ba-Fe-Sb,3,Ba(FeSb3)4
0.0,Ba-Fe-Se,3,Ba(FeSe2)2
0.0,Ba-Ga-H,3,Ba(GaH)2
2.0259,Ba-Ga-O,3,Ba(GaO2)2
1.4276999999999995,Ba-Ga-P,3,Ba(GaP)2
0.0,Ba-Ga-Pt,3,Ba(GaPt)2
1.8578,Ba-Ga-Se,3,Ba(GaSe2)2
0.5291000000000001,Ba-Ga-Te,3,Ba(GaTe2)2
0.0,Ba-Ge-Pt,3,Ba(Ge3Pt)4
0.0,Au-Ba-Ge,3,Ba(GeAu)2
0.0,Ba-Ge-Rh,3,Ba(GeRh)2
0.0,Ba-Ge-Ru,3,Ba(GeRu)2
2.5241,Ba-H-O,3,Ba(H2O3)2
0.0,Ba-H-O,3,Ba(H2O3)2
2.5448,Ba-H-O,3,Ba(H2O3)2
0.0027,Ba-H-O,3,Ba(H2O3)2
0.2549,Ba-H-O,3,Ba(H2O3)2
2.7803,Ba-H-O,3,Ba(H2O3)2
0.1234999999999999,Ba-H-O,3,Ba(H2O3)2
0.1985,Ba-H-O,3,Ba(H2O3)2
3.9706,Ba-H-O,3,Ba(H8O5)2
4.1036,Ba-H-O,3,Ba(H8O5)2
3.8353,Ba-H-O,3,Ba(H8O5)2
3.8287,Ba-H-O,3,Ba(H8O5)2
3.904,Ba-H-O,3,Ba(H8O5)2
3.5473,Ba-H-O,3,Ba(H8O5)2
3.8349,Ba-H-O,3,Ba(H8O5)2
3.7433,Ba-H-O,3,Ba(H8O5)2
1.1066,Ba-Cl-H,3,Ba(HCl)2
4.6229000000000005,Ba-H-O,3,Ba(HO)2
2.9433,Ba-H-O,3,Ba(HO2)2
3.5436,Ba-I-O,3,Ba(IO3)2
0.0,Ba-Cu-In,3,Ba(InCu)2
0.0,Ba-In-Pt,3,Ba(InPt)2
0.8637000000000001,Ba-In-Te,3,Ba(InTe2)2
0.0,Ba-Ir-O,3,Ba(IrO3)2
2.0311000000000003,Ba-I-La,3,Ba(LaI4)2
2.0684,Ba-La-S,3,Ba(LaS2)2
1.7602000000000002,Ba-La-Se,3,Ba(LaSe2)2
1.0689000000000002,As-Ba-Mg,3,Ba(MgAs)2
0.3967999999999998,Ba-Bi-Mg,3,Ba(MgBi)2
0.0,Ba-Ge-Mg,3,Ba(MgGe)2
0.0,Ba-In-Mg,3,Ba(MgIn)2
1.1366,Ba-Mg-P,3,Ba(MgP)2
0.0,Ba-Mg-Pb,3,Ba(MgPb)2
0.8466,Ba-Mg-Sb,3,Ba(MgSb)2
0.0,Ba-Mg-Si,3,Ba(MgSi)2
0.0,As-Ba-Mn,3,Ba(MnAs)2
0.0,Ba-Bi-Mn,3,Ba(MnBi)2
0.0,Ba-Ge-Mn,3,Ba(MnGe)2
0.0,Ba-Mn-N,3,Ba(MnN)2
0.0,Ba-Mn-P,3,Ba(MnP)2
0.0,Ba-Mn-Sb,3,Ba(MnSb)2
0.0,Ba-Mn-Sn,3,Ba(MnSn)2
0.0,Ba-Mo-S,3,Ba(Mo3S4)2
0.0,Ba-Mo-O,3,Ba(MoO2)4
0.0,Ba-Mo-Se,3,Ba(MoSe)3
2.3829,Ba-N-O,3,Ba(NO2)2
1.9232,Ba-Nd-S,3,Ba(NdS2)2
1.5999,Ba-Nd-Se,3,Ba(NdSe2)2
0.0,B-Ba-Ni,3,Ba(Ni2B)6
0.0,Ba-Ni-P,3,Ba(Ni5P3)2
0.0,As-Ba-Ni,3,Ba(NiAs)2
0.0,B-Ba-Ni,3,Ba(NiB)2
0.0,Ba-N-Ni,3,Ba(NiN)2
0.0,Ba-Ni-O,3,Ba(NiO2)4
0.3230999999999997,Ba-Ni-O,3,Ba(NiO2)4
0.0,Ba-Ni-P,3,Ba(NiP)2
0.0,Ba-Ni-P,3,Ba(NiP2)2
0.1909999999999998,Au-Ba-P,3,Ba(P2Au)2
0.0,Ba-P-Pd,3,Ba(P2Pd)2
0.0,Ba-Ir-P,3,Ba(PIr)2
0.0,Ba-O-P,3,Ba(PO4)2
0.0,Ba-Os-P,3,Ba(POs)2
0.0,Ba-P-Pd,3,Ba(PPd)2
0.0,Ba-P-Rh,3,Ba(PRh)2
0.0,Ba-P-Ru,3,Ba(PRu)2
0.0,Ba-O-Pd,3,Ba(PdO2)2
0.7791999999999999,Ba-Pd-S,3,Ba(PdS2)2
1.9354,Ba-Pr-S,3,Ba(PrS2)2
1.6190000000000002,Ba-Pr-Se,3,Ba(PrSe2)2
0.0,Ba-N-Ru,3,Ba(RuN)2
0.1563,Ba-O-S,3,Ba(SO4)2
0.0,Ba-Os-Sb,3,Ba(Sb3Os)4
0.0,Ba-Ru-Sb,3,Ba(Sb3Ru)4
0.0,Au-Ba-Sb,3,Ba(SbAu)2
0.0,Ba-O-Sb,3,Ba(SbO2)4
2.8606,Ba-O-Sb,3,Ba(SbO3)2
0.0,Ba-Pd-Sb,3,Ba(SbPd)2
0.0,Ba-Ru-Sb,3,Ba(SbRu)2
0.0,Ba-O-Se,3,Ba(SeO3)2
3.2602,Ba-N-Si,3,Ba(Si3N4)2
0.0,Ba-Ir-Si,3,Ba(SiIr)2
0.0,Ba-Ni-Si,3,Ba(SiNi)2
0.0,Ba-Rh-Si,3,Ba(SiRh)2
0.0,Ba-Ru-Sn,3,Ba(Sn2Ru)3
0.0,Ba-O-Sn,3,Ba(SnO2)4
0.0,Ba-Mo-Te,3,Ba(TeMo)6
1.7620000000000005,Ba-O-Te,3,Ba(TeO3)2
0.0,Ba-S-V,3,Ba(V3S4)4
0.0,Ba-O-W,3,Ba(WO2)4
0.0,Ba-O-W,3,Ba(WO3)6
0.0,As-Ba-Zn,3,Ba(ZnAs)2
0.2974000000000001,As-Ba-Zn,3,Ba(ZnAs)2
0.0,Ba-Ge-Zn,3,Ba(ZnGe)2
0.5185,Ba-N-Zn,3,Ba(ZnN)2
0.5057,Ba-N-Zn,3,Ba(ZnN)2
0.0,Ba-P-Zn,3,Ba(ZnP)2
0.0,Ba-Sb-Zn,3,Ba(ZnSb)2
0.0,Ba-Si-Zn,3,Ba(ZnSi)2
0.0,Ba-Sn-Zn,3,Ba(ZnSn)2
0.0,Ag-Al-Ba,3,Ba2(AlAg)5
0.0,Al-Ba-Ca,3,Ba2(CaAl3)3
0.0,Ba-Cu-O,3,Ba2(CuO2)3
0.0,Ba-Ir-O,3,Ba2(IrO3)3
0.0,B-Ba-Ni,3,Ba2(Ni3B2)3
0.0581,Ag-Ba-Bi,3,Ba2AgBi
0.1266000000000002,Ag-Ba-I-O,4,Ba2AgIO6
0.2071999999999998,Ag-Ba-Sb,3,Ba2AgSb
0.0,Ag-Ba-F-Te,4,Ba2AgTe2F
0.0,Ag-Al-Ba-O,4,Ba2AlAg3O8
0.0,Al-Ba-Bi-O,4,Ba2AlBi3O8
0.0,Al-Ba-Co-O,4,Ba2AlCo3O8
0.0,Al-Ba-Cr-O,4,Ba2AlCr3O7
0.0,Al-Ba-Cr-O,4,Ba2AlCr3O8
0.0,Al-Ba-Cu-O,4,Ba2AlCu3O7
0.0,Al-Ba-Cu-O,4,Ba2AlCu3O8
0.1461999999999998,Al-Ba-Cu-F,4,Ba2AlCuF9
0.133,Al-Ba-Fe-O,4,Ba2AlFe3O7
1.2784,Al-Ba-Fe-O,4,Ba2AlFe3O7
0.0,Al-Ba-Fe-O,4,Ba2AlFe3O8
0.0,Al-Ba-Ga,3,Ba2AlGa3
0.0,Al-Ba-In,3,Ba2AlIn3
0.0,Al-Ba-Mo-O,4,Ba2AlMo3O8
0.0,Al-Ba-Ni-O,4,Ba2AlNi3O7
0.0,Al-Ba-Ni-O,4,Ba2AlNi3O8
0.0,Al-Ba-O-Sb,4,Ba2AlSb3O8
0.0,Al-Ba-O-Sn,4,Ba2AlSn3O7
0.0,Al-Ba-O-Sn,4,Ba2AlSn3O8
0.0317000000000002,Al-Ba-Co-O-Tl,5,Ba2AlTlCo2O7
0.0,Al-Ba-Co-O-Tl,5,Ba2AlTlCo2O7
0.0,Al-Ba-Cr-O-Tl,5,Ba2AlTlCr2O7
0.0,Al-Ba-Cu-O-Tl,5,Ba2AlTlCu2O7
0.0,Al-Ba-Fe-O-Tl,5,Ba2AlTlFe2O7
0.0,Al-Ba-Ni-O-Tl,5,Ba2AlTlNi2O7
0.0,Al-Ba-O-Sn-Tl,5,Ba2AlTlSn2O7
0.0,Al-Ba-O-Tl-V,5,Ba2AlTlV2O7
0.0,Al-Ba-O-Tl-W,5,Ba2AlTlW2O7
0.0,Al-Ba-O-V,4,Ba2AlV3O7
0.0,Al-Ba-O-V,4,Ba2AlV3O8
0.0,Al-Ba-O-W,4,Ba2AlW3O7
0.0,Al-Ba-O-W,4,Ba2AlW3O8
0.0,As-Ba,2,Ba2As
3.1948,As-Ba-O,3,Ba2As6O11
1.7849000000000004,As-Ba-O,3,Ba2As6O11
0.5211000000000001,As-Au-Ba,3,Ba2AsAu
0.1257999999999999,As-Ba-O-Se,4,Ba2AsSe4O3
0.0,Au-Ba-C-O,4,Ba2Au(CO)2
0.0,Au-Ba-O,3,Ba2AuO4
0.0,B-Ba-O-P,4,Ba2B(PO4)2
3.8041,B-Ba-O,3,Ba2B2O5
5.2372,B-Ba-H-O,4,Ba2B6H4O13
0.0,Ba-Be-Ga,3,Ba2BeGa
3.816,Ba-Be-F-O-S,5,Ba2BeS(OF)4
0.0,Ba-Bi,2,Ba2Bi
2.0129,Ba-Bi-O,3,Ba2Bi2O5
0.0,Ba-Bi,2,Ba2Bi3
0.0,Ba-Bi-O,3,Ba2Bi3O7
1.8359,Ba-Bi-O,3,Ba2Bi6O11
0.4227999999999996,Au-Ba-Bi,3,Ba2BiAu
0.0,Ba-Bi-Ir-O,4,Ba2BiIrO6
0.0,Ba-Bi-O-Sb,4,Ba2BiSbO6
1.7745999999999995,Ba-Bi-O-Sb,4,Ba2BiSbO6
1.9752,Ba-Bi-O-Sb,4,Ba2BiSbO6
1.6438999999999997,Ba-Bi-O-Sb,4,Ba2BiSbO6
0.3196999999999996,Ba-Bi-O-Sb,4,Ba2BiSbO6
0.0,Ba-Bi-O-W,4,Ba2BiWO6
3.2683,Ba-Br-O,3,Ba2Br2O
1.1377000000000002,Ba-Br-N,3,Ba2BrN
0.9908,Ba-C-O,3,Ba2C4O9
4.9616,B-Ba-Ca-O,4,Ba2Ca(BO2)6
4.080500000000001,B-Ba-Ca-O,4,Ba2Ca(BO3)2
1.4866,Ba-Ca-O-Pd,4,Ba2Ca(PdO2)3
0.0,Ba-Ca-O-Pd,4,Ba2Ca(PdO2)3
0.0,Ba-Ca-Cu-Hg-O,5,Ba2Ca2Cu3HgO8
0.0,Ba-Ca-Cu-Eu-O-Ti,6,Ba2Ca2EuTi3(CuO7)2
0.0,Ba-Ca-Mn-O-Tl,5,Ba2Ca2Mn3Tl2O10
0.0,Ba-Ca-Cu-Nd-O-Ti,6,Ba2Ca2NdTi2(CuO6)2
0.0,Ba-Ca-Cu-O-Tb-Ti,6,Ba2Ca2TbTi3(CuO7)2
0.0,Ba-Ca-O-Ti-Tl,5,Ba2Ca2Ti3Tl2O10
0.0,Ba-Ca-Co-O-Tl,5,Ba2Ca2Tl2Co3O10
0.0,Ba-Ca-Cr-O-Tl,5,Ba2Ca2Tl2Cr3O10
0.0,Ba-Ca-Cu-O-Tl,5,Ba2Ca2Tl2Cu3O10
0.0,Ba-Ca-Fe-O-Tl,5,Ba2Ca2Tl2Fe3O10
0.0,Ba-Ca-Ni-O-Tl,5,Ba2Ca2Tl2Ni3O10
0.0,Ba-Ca-O-Sn-Tl,5,Ba2Ca2Tl2Sn3O10
0.0,Ba-Ca-O-Tl-W,5,Ba2Ca2Tl2W3O10
0.0,Ba-Ca-Cu-Hg-O,5,Ba2Ca3Cu4HgO10
0.0,Ba-Ca-Mn-O-Tl,5,Ba2Ca3Mn4Tl2O12
0.0,Ba-Ca-O-Ti-Tl,5,Ba2Ca3Ti4Tl2O12
0.0,Ba-Ca-Co-O-Tl,5,Ba2Ca3Tl2(CoO3)4
0.0,Ba-Ca-Cu-O-Tl,5,Ba2Ca3Tl2(CuO3)4
0.0,Ba-Ca-Fe-O-Tl,5,Ba2Ca3Tl2(FeO3)4
0.0,Ba-Ca-Ni-O-Tl,5,Ba2Ca3Tl2(NiO3)4
0.0,Ba-Ca-O-Sn-Tl,5,Ba2Ca3Tl2(SnO3)4
0.0,Ba-Ca-O-Tl-W,5,Ba2Ca3Tl2(WO3)4
0.0,Ba-Ca-Cr-O-Tl,5,Ba2Ca3Tl2Cr4O12
0.0,Ba-Ca-O-Tl-V,5,Ba2Ca3Tl2V4O12
0.0,Ba-Ca-Cu-O-Tl,5,Ba2Ca3TlCu4O11
0.0,Ba-Ca-Cu-O-Tl,5,Ba2Ca4TlCu5O13
1.2034000000000002,Al-Ba-Ca-Fe-O,5,Ba2CaAl2(Fe4O7)2
0.0,Ba-Bi-Ca-O,4,Ba2CaBiO6
0.0,Ba-Ca-Ce-Cu-Gd-O-Ti,7,Ba2CaCeGd2Ti2(CuO7)2
0.6019999999999999,Ba-Ca-Cr-O,4,Ba2CaCrO6
0.0,Ba-Ca-Cu-Hg-O,5,Ba2CaCu(HgO3)2
0.0,Ba-Ca-Cu-Hg-O,5,Ba2CaCu2HgO6
0.0,Ba-Ca-Cu-Mo-O,5,Ba2CaCu2MoO8
0.2859999999999996,Ba-Ca-Er-Ni-O,5,Ba2CaEr3(NiO5)2
0.0,Ba-Ca-Cu-Eu-O-Ti,6,Ba2CaEu2Ti3(CuO7)2
3.4758,Ba-Ca-I,3,Ba2CaI6
0.0,Ba-Ca-Ir-O,4,Ba2CaIrO6
0.0,Ba-Ca-Mn-O-P,5,Ba2CaMn2(P2O7)2
2.258,Ba-Ca-Mo-O,4,Ba2CaMoO6
0.2311,Ba-Ca-N,3,Ba2CaN2
0.0,Ba-Ca-N,3,Ba2CaN2
0.0,Ba-Ca-Nb-O,4,Ba2CaNbO6
0.0,Ba-Ca-O-Os,4,Ba2CaOsO6
0.0,Ba-Ca-O-Re,4,Ba2CaReO6
2.01,Ba-Ca-O-Se,4,Ba2CaSeO6
0.0,Ba-Ca-Cu-O-Sm-Ti,6,Ba2CaSm2Ti3(CuO7)2
0.4236000000000004,Ba-Ca-Cu-O-Tb-Ti,6,Ba2CaTb2Ti3(CuO7)2
2.9976,Ba-Ca-O-Te,4,Ba2CaTeO6
0.0,Ba-Ca-Cu-O-Tl,5,Ba2CaTl2(CuO3)4
0.0,Ba-Ca-Cu-O-Tl,5,Ba2CaTl2(CuO4)2
0.0,Ba-Ca-Cu-O-Tl,5,Ba2CaTlCu2O7
2.1948,Ba-Ca-O-U,4,Ba2CaUO6
2.0222,Ba-Ca-O-Si-V,5,Ba2CaV2(Si2O7)2
1.7710999999999997,Ba-Ca-O-Si-V,5,Ba2CaV2(Si2O7)2
1.0271999999999997,Ba-Ca-O-Si-V,5,Ba2CaV2(Si2O7)2
1.0217999999999998,Ba-Ca-O-Si-V,5,Ba2CaV2(Si2O7)2
3.183,Ba-Ca-O-W,4,Ba2CaWO6