eg,chemsys,nelements,formula
0.0,Ho-Nb-Ru,3,HoNbRu2
0.0,Ho-Ni,2,HoNi
0.0,Ho-Ni,2,HoNi2
0.0,B-C-Ho-Ni,4,HoNi2B2C
0.0,Ho-Ni,2,HoNi3
0.0,Au-Ho-Ni,3,HoNi4Au
0.0,B-Ho-Ni,3,HoNi4B
0.0,Ho-Ni,2,HoNi5
0.0,Ge-Ho-Ni,3,HoNi5Ge3
0.0,As-Ho-Ni,3,HoNiAs
0.0,B-Ho-Ni,3,HoNiB4
0.1941000000000006,Bi-Ho-Ni,3,HoNiBi
0.0,C-Ho-Ni,3,HoNiC2
0.0,Ge-Ho-Ni,3,HoNiGe
0.0,Ge-Ho-Ni,3,HoNiGe2
0.0,Ge-Ho-Ni,3,HoNiGe3
0.0,Ho-Ni-O,3,HoNiO3
0.0,Ho-Ni-Pb,3,HoNiPb
0.2919999999999998,Ho-Ni-Sb,3,HoNiSb
0.0,Ho-Ni-Sb,3,HoNiSb2
0.0,Ho-Ni-Sn,3,HoNiSn
0.0,Ho-Ni-Sn,3,HoNiSn4
0.0,Ho-Np,2,HoNp
0.0,Ho-Np,2,HoNp3
0.0,Ho-Np-Ru,3,HoNpRu2
0.0,Ho-O,2,HoO
0.0,Ho-O,2,HoO2
0.1889,Ho-O,2,HoO3
0.0,Ho-O,2,HoO3
5.0894,F-Ho-O,3,HoOF
0.0,Ho-Os,2,HoOs2
0.0,Ho-Os,2,HoOs3
0.0,Ho-P,2,HoP
2.1728,H-Ho-O-P,4,HoP2(HO2)5
0.1063,Ho-P,2,HoP5
3.7282,C-H-Ho-O-P,5,HoPH5CO7
5.9209,Ho-O-P,3,HoPO4
0.0182999999999999,Ho-P-Pd,3,HoPPd
0.0,C-Ho-P-Ru,4,HoPRu2C
0.2939999999999996,Ho-P-S,3,HoPS
2.4203,Ho-O-Pa,3,HoPaO4
3.2288,Ho-O-Pa,3,HoPaO4
0.0,Ho-Os-Pa,3,HoPaOs2
0.0,Ho-Pa-Ru,3,HoPaRu2
0.0,Ho-Pa-Tc,3,HoPaTc2
0.0,Ho-Pb,2,HoPb3
0.0,Au-Ho-Pb,3,HoPbAu
0.0,Ho-Pd,2,HoPd
0.0,Ho-Pd,2,HoPd2
0.0,Ho-Pb-Pd,3,HoPd2Pb
0.0,Ho-Pd,2,HoPd3
0.0,Ho-Pd-S,3,HoPd3S4
0.0,Ho-Pt,2,HoPt
0.0,Ho-Pt,2,HoPt2
0.0,Ho-Pt,2,HoPt3
2.1007,F-Ho-Pt,3,HoPtF7
0.0,Ho-Pu,2,HoPu3
0.0,Ho-Os-Pu,3,HoPuOs2
0.0,Ho-Re,2,HoRe2
0.0,C-Ho-Re-Si,4,HoRe2SiC
0.0,B-Ho-Re,3,HoReB4
0.0,Ho-Rh,2,HoRh
0.0,Ho-Rh,2,HoRh2
0.0,Ho-Pb-Rh,3,HoRh2Pb
0.0,C-Ho-Rh,3,HoRh3C
0.0,Ho-O-Rh,3,HoRhO3
0.9605999999999996,Ho-O-Rh,3,HoRhO3
0.0,Ho-Ru,2,HoRu2
0.0,C-Ho-Ru,3,HoRu3C
0.0,Ho-S,2,HoS
0.0,Ho-S,2,HoS2
1.2996,F-Ho-S,3,HoSF
2.7206,Ho-I-S,3,HoSI
1.1909999999999998,Ho-O-S,3,HoSO
0.0,Ho-Sb,2,HoSb
0.0,Ho-Sb,2,HoSb2
0.0,Ho-Sb,2,HoSb3
0.0,Ho-Ir-Sb,3,HoSbIr
0.0,Ho-O-Sb,3,HoSbO3
2.3323,Ho-O-Sb,3,HoSbO4
2.2933,Ho-O-Sb,3,HoSbO4
0.3915999999999995,Ho-Pd-Sb,3,HoSbPd
0.0,Ho-Pd-Sb,3,HoSbPd2
0.0,Ho-Pt-Sb,3,HoSbPt
0.0,Ho-Rh-Sb,3,HoSbRh
0.0,Ho-Rh-Sb,3,HoSbRh2
4.4611,B-Ho-O-Sc,4,HoSc(BO3)2
0.0,B-Ho-Rh-Sc,4,HoSc(BRh)8
0.0,Al-Ho-Sc,3,HoScAl2
0.0,Ge-Ho-Sc,3,HoScGe
4.476,Ho-O-Sc,3,HoScO3
0.0,Ho-Ru-Sc,3,HoScRu2
1.7663000000000002,Ho-S-Sc,3,HoScS3
0.0,Ho-Sc-Si,3,HoScSi
0.0,Ho-Sc-Zn,3,HoScZn2
0.0,Ho-Se,2,HoSe
0.0,Ho-Se,2,HoSe2
4.357200000000001,Cl-Ho-O-Se,4,HoSeClO3
2.8304,F-Ho-Se,3,HoSeF
4.2961,F-Ho-O-Se,4,HoSeO3F
0.0,Ho-Si,2,HoSi
0.0,Ho-Si,2,HoSi2
0.0,Ho-Ni-Si,3,HoSi2Ni
0.0,Ho-Rh-Si,3,HoSi2Rh3
0.0,Ho-Si,2,HoSi3
0.0,Ho-Ir-Si,3,HoSi3Ir
0.0,Ho-Ni-Si,3,HoSi3Ni5
0.0,Ho-Ir-Si,3,HoSiIr
0.0,Ho-Ni-Si,3,HoSiNi
0.0,Ho-Ni-Si,3,HoSiNi4
0.0,Ho-O-Si,3,HoSiO3
0.0,C-Ho-Os-Si,4,HoSiOs2C
0.0,Ho-Pd-Si,3,HoSiPd2
0.0,Ho-Pt-Si,3,HoSiPt
0.0,Ho-Pt-Si,3,HoSiPt2
0.0,Ho-Rh-Si,3,HoSiRh
0.0,Ho-Ru-Si,3,HoSiRu
0.0,C-Ho-Ru-Si,4,HoSiRu2C
0.0,Ho-Sn,2,HoSn2
0.0,Ho-Sn,2,HoSn3
0.0,Au-Ho-Sn,3,HoSnAu
0.0220000000000002,Au-Ho-Sn,3,HoSnAu
0.0,Au-Ho-Sn,3,HoSnAu2
0.0,Ge-Ho-Sn,3,HoSnGe
0.0,Ho-Ir-Sn,3,HoSnIr
0.0,Ho-O-Sn,3,HoSnO3
0.0,Ho-Pd-Sn,3,HoSnPd
0.0,Ho-Pd-Sn,3,HoSnPd2
0.0,Ho-Pt-Sn,3,HoSnPt
0.0,Ho-Rh-Sn,3,HoSnRh
0.0,Ho-Rh-Sn,3,HoSnRh2
0.0,Ho-Ru-Sn,3,HoSnRu2
0.0,Ho-Ta,2,HoTa3
3.0053,Ho-O-Ta,3,HoTa3O9
1.5892,Ho-O-Ta,3,HoTaO4
4.050800000000001,Ho-O-Ta,3,HoTaO4
4.0406,Ho-O-Ta,3,HoTaO4
0.0,Ho-Os-Ta,3,HoTaOs2
0.0,Ho-Ru-Ta,3,HoTaRu2
3.334,Ho-O-Ta-Ti,4,HoTaTiO6
0.0,Ho-Tc,2,HoTc2
0.0,Ho-Te,2,HoTe
0.0,Ho-Te,2,HoTe2
0.0,Ho-Te,2,HoTe3
3.8573,Cl-Ho-O-Te,4,HoTeClO3
0.0,Ho-Th,2,HoTh
0.0,Ho-Th,2,HoTh3
0.0,Ho-Os-Th,3,HoThOs2
0.0,Ho-Ru-Th,3,HoThRu2
0.0,Ho-Tc-Th,3,HoThTc2
0.0,Ho-O-Ti-Zn,4,HoTi2ZnO6
3.1229999999999998,Cl-Ho-O-Ti,4,HoTiClO3
0.0,Co-Ho-Ti,3,HoTiCo11
0.0,Fe-Ho-Ti,3,HoTiFe11
0.0,C-Fe-Ho-Ti,4,HoTiFe11C
0.0,Fe-Ho-N-Ti,4,HoTiFe11N
0.0,Co-Fe-Ho-Ti,4,HoTiFe8Co3
0.0,Ge-Ho-Ti,3,HoTiGe
0.0,Ho-O-Ti,3,HoTiO3
0.0,Ho-Si-Ti,3,HoTiSi
0.0,Ho-Tl,2,HoTl
2.9276,Ho-O-Tl-W,4,HoTl(WO4)2
0.0,Ho-Tl,2,HoTl3
1.4262,Ho-O-Tl,3,HoTlO2
0.0,Ho-Pd-Tl,3,HoTlPd
0.0,Ho-Rh-Tl,3,HoTlRh2
1.4885000000000002,Ho-S-Tl,3,HoTlS2
1.2785000000000002,Ho-Se-Tl,3,HoTlSe2
0.7305000000000001,Ho-Te-Tl,3,HoTlTe2
0.0,Ho-Tm,2,HoTm3
0.0,Ag-Ho-Tm,3,HoTmAg2
0.0,Al-Ho-Tm,3,HoTmAl2
0.0,Cd-Ho-Tm,3,HoTmCd2
0.0,Cu-Ho-Tm,3,HoTmCu2
0.0,Hg-Ho-Tm,3,HoTmHg2
0.0,Ho-In-Tm,3,HoTmIn2
0.0,Ho-Mg-Tm,3,HoTmMg2
4.5366,Ho-O-Tm,3,HoTmO3
0.0,Ho-Pd-Tm,3,HoTmPd2
0.0,Ho-Rh-Tm,3,HoTmRh2
0.0,Ho-Ru-Tm,3,HoTmRu2
0.0,Ho-Tl-Tm,3,HoTmTl2
0.0,Ho-Tm-Zn,3,HoTmZn2
0.0,Ho-O-S-U,4,HoU2S3O2
0.0,Ho-U,2,HoU3
0.0,Ho-Te-U,3,HoUTe4
0.0,Ho-Te-U,3,HoUTe6
0.0,Ho-O-V,3,HoV2O2
0.8904999999999998,Ho-O-V,3,HoV2O6
1.0043999999999995,Ho-O-V-Zn,4,HoV2ZnO6
0.0,B-Ho-V,3,HoVB4
1.1970999999999998,Ho-O-V,3,HoVO3
2.7484,Ho-O-V,3,HoVO4
2.9805,Ho-O-V,3,HoVO4
0.0,C-Ho-W,3,HoWC2
3.4026,Cl-Ho-O-W,4,HoWClO4
0.0,Ho-O-W,3,HoWO5
0.0,Ho-Zn,2,HoZn
0.0,Bi-Ho-O-Zn,4,HoZn(BiO3)2
0.0748999999999999,Co-Ho-O-Zn,4,HoZn(CoO3)2
0.0,Fe-Ho-O-Zn,4,HoZn(FeO3)2
1.1326,Ho-Mo-O-Zn,4,HoZn(MoO3)2
0.0,Ho-Ni-O-Zn,4,HoZn(NiO3)2
1.4613,Ho-O-Sb-Zn,4,HoZn(SbO3)2
0.0,Ho-O-Sn-Zn,4,HoZn(SnO3)2
0.9379,Ho-O-W-Zn,4,HoZn(WO3)2
0.0,Ho-Zn,2,HoZn12
0.0,Ho-Zn,2,HoZn2
0.0,Ho-Zn,2,HoZn3
0.1129000000000002,Cr-Ho-O-Zn,4,HoZnCr2O6
0.0,Ge-Ho-Zn,3,HoZnGe
0.0,Ho-In-Zn,3,HoZnIn
0.0,Ho-Pd-Zn,3,HoZnPd
0.0,Ho-Pd-Zn,3,HoZnPd2
0.0,Ho-Rh-Zn,3,HoZnRh
0.0,Ho-Rh-Zn,3,HoZnRh2
0.0,Ho-Si-Zn,3,HoZnSi
0.0,Ho-Sn-Zn,3,HoZnSn
0.0,Ho-Sn-Zn,3,HoZnSn2
0.0,Ho-Zr,2,HoZr
0.0,Co-Ho-Zr,3,HoZrCo4
5.857200000000001,F-Ho-Zr,3,HoZrF7
0.0,Ho-Os-Zr,3,HoZrOs2
0.0,Ho-Ru-Zr,3,HoZrRu2
0.0,Ho-Sb-Zr,3,HoZrSb
0.0,I,1,I
0.0,Cl-I-O,3,I(ClO)4
0.0,I-N-O,3,I(NO3)2
2.7278,I-O,2,I2O5
1.7109,I-N-O,3,I3NO9
1.4023,Br-I,2,IBr
0.0,Br-I,2,IBr2
0.0,Cl-I,2,ICl2
1.7959999999999998,Cl-I,2,ICl3
1.0255999999999998,Cl-I-O,3,IClO
0.0,Cl-I-O,3,IClO3
2.1132,F-I,2,IF3
1.8027,F-I,2,IF7
1.4397,F-I,2,IF7
1.6861,F-I,2,IF7
1.4690999999999996,F-I,2,IF7
0.0,I-N,2,IN
0.0,I-N,2,IN2
1.4687,F-I-N-O,4,IN2O4F5
0.0,I-N,2,IN3
0.0,I-N,2,IN4
0.0,I-N,2,IN5
0.0,I-N-O,3,INO3
1.6497000000000002,I-N-O,3,INO3
1.6941,I-N-O,3,INO4
1.4625,I-O,2,IO2
2.8952,F-I-O,3,IO2F
0.0,I-O,2,IO3
1.9182,I-O,2,IO3
0.1761999999999999,I-O,2,IO6
3.637,F-I-O,3,IOF3
0.0,In,1,In
0.0,B-In-O,3,In(BO2)5
0.5345,Bi-In-Se,3,In(BiSe2)3
0.0,B-Co-In,3,In(Co11B3)2
0.0,Co-In-N,3,In(CoN)2
0.0,Cu-In-O,3,In(Cu3O4)2
0.0,Cu-In-N,3,In(CuN)3
0.0,Fe-In-N,3,In(FeN)2
0.0,Fe-In-O,3,In(FeO2)2
0.0,Au-Ga-In,3,In(GaAu)2
0.0,H-In-O,3,In(HO)3
2.7772,H-In-O,3,In(HO)3
2.7719000000000005,H-In-O,3,In(HO)3
1.9486,H-In-O,3,In(HO)3
2.3273,H-In-O,3,In(HO)3
3.4113,I-In-O,3,In(IO3)3
3.0751000000000004,I-In-O,3,In(IO3)3
0.0,In-Mo-S,3,In(Mo3S4)2
0.0,In-Mo-Se,3,In(Mo3Se4)2
0.0,In-Mo-Se,3,In(MoSe)3
0.0,F-In-N,3,In(NF2)3
0.0,B-In-Ni,3,In(Ni11B3)2
2.817,In-O-P,3,In(PO3)3
4.3778,In-O-P,3,In(PO3)3
0.0,In-O-P,3,In(PO4)3
0.0,In-Mo-Te,3,In(TeMo)3
0.7987000000000002,In-O-Sb,3,In11(SbO8)3
2.151,C-In-N,3,In2(CN2)3
0.0,B-Co-In,3,In2(Co7B2)3
0.0,B-In-Ni,3,In2(Ni7B2)3
0.0,In-Ni-P,3,In2(Ni7P2)3
3.7535,In-O-S,3,In2(SO4)3
0.0,Ag-In,2,In2Ag
0.0,Ag-In-Sb-Se,4,In2Ag3SbSe6
0.9666,Ag-Br-In-S,4,In2AgS3Br
1.1027,Ag-Cl-In-S,4,In2AgS3Cl
0.2180999999999997,Ag-Br-In-Se,4,In2AgSe3Br
0.7235,Ag-Cl-In-Se,4,In2AgSe3Cl
0.0307999999999997,Ag-I-In-Se,4,In2AgSe3I
0.0,Ag-In-Se,3,In2AgSe4
0.0,Ag-Br-In-Te,4,In2AgTe3Br
0.0,Ag-Cl-In-Te,4,In2AgTe3Cl
0.4591000000000003,Ag-I-In-Te,4,In2AgTe3I
3.1511000000000005,As-Cl-In-O,4,In2As2Cl2O5
0.0,As-In-P,3,In2AsP
1.3294999999999997,As-In-P,3,In2AsP
0.0,As-In-Pt,3,In2AsPt8
0.0,As-In-Se,3,In2AsSe
0.0,Au-In,2,In2Au
0.0,Au-In,2,In2Au3
3.9141,B-In-O-P,4,In2B(PO4)3
0.0,Bi-In,2,In2Bi
0.0,Co-In,2,In2Co
0.0,Co-In-O-S,4,In2Co(SO)2
0.0,Co-In-O,3,In2Co2O7
0.0,Co-In-N,3,In2Co3N4
0.0,Co-In-S,3,In2Co3S2
0.0,Co-In-S,3,In2CoS4
0.0,Co-In-Se,3,In2CoSe4
0.0,Cu-In,2,In2Cu
0.1949999999999994,Cu-In-O,3,In2Cu2O5
0.0,Cu-In-O,3,In2Cu2O5
0.4584000000000001,Cu-In-S-Si,4,In2Cu2SiS6
0.3885999999999994,Ag-Cu-In-S-Sn,5,In2CuAg(SnS4)2
0.0678999999999998,Ag-Cu-In-Se-Te,5,In2CuAg(TeSe)2
0.0895999999999999,Ag-Cu-In-S,4,In2CuAgS4
0.0032,Ag-Cu-In-Se,4,In2CuAgSe4
0.0194999999999998,Ag-Cu-In-Te,4,In2CuAgTe4
0.0054000000000002,As-Cu-In-Se,4,In2CuAsSe2
0.0,Cu-In-O,3,In2CuO4
0.0,Cu-In-S,3,In2CuS4
0.4907999999999997,Br-Cu-In-Se,4,In2CuSe3Br
0.1766999999999998,Cu-I-In-Se,4,In2CuSe3I
0.0,Cu-In-Se,3,In2CuSe4
0.5747000000000004,Br-Cu-In-Te,4,In2CuTe3Br
0.0,Br-Cu-In-Te,4,In2CuTe3Br
0.6181999999999994,Cl-Cu-In-Te,4,In2CuTe3Cl
1.0658,Cu-I-In-Te,4,In2CuTe3I
0.0,Fe-In-S,3,In2FeS4
0.5701,Fe-In-O-Sb,4,In2FeSbO7
0.0,As-Ga-In,3,In2GaAs3
1.8499000000000003,Bi-Ga-In-S,4,In2GaBiS6
0.0782999999999995,Ga-In-N,3,In2GaN3
0.0,Ga-In-S,3,In2GaS4
1.0494000000000003,Ge-In-O,3,In2Ge2O7
1.7955,Ge-In-O,3,In2Ge2O7
0.0,B-Ge-In,3,In2GeB
0.1462000000000003,Hg-In-O,3,In2HgO4
0.3467000000000002,Hg-In-S,3,In2HgS4
0.6337000000000002,Hg-In-Se,3,In2HgSe4
0.5295000000000001,Hg-In-Te,3,In2HgTe4
0.0,Hg-In-Te,3,In2HgTe4
0.0,In-Ir,2,In2Ir
0.0,In-Ni-S,3,In2Ni3S2
0.0,In-Ni-Se,3,In2Ni3Se2
0.0,C-In-Ni,3,In2Ni6C
0.0,B-In-Ni,3,In2Ni7B
0.2151999999999994,In-N-Ni,3,In2NiN2
0.0,In-Ni-S,3,In2NiS4
0.7626999999999997,In-O,2,In2O3
0.2217000000000002,In-O,2,In2O3
0.9586000000000006,In-O,2,In2O3
0.1121999999999996,In-O,2,In2O3
2.0733999999999995,In-O-P,3,In2PO5
0.5834999999999999,In-N-Pb,3,In2Pb3N4
0.0,In-Pd-Se,3,In2Pd8Se
0.0,In-Pt,2,In2Pt
2.049200000000001,In-O-Pt,3,In2Pt2O7
0.0,In-Pt,2,In2Pt3
0.0,B-In-Re,3,In2ReB
0.0,In-Rh-S,3,In2Rh3S2
0.8170999999999999,In-S,2,In2S3
0.2801999999999998,In-S,2,In2S3
1.4722999999999995,In-S,2,In2S3
0.0,In-Sb,2,In2Sb
0.0,As-In-Sb,3,In2SbAs
0.1044999999999998,In-Se,2,In2Se3
0.0,In-Se,2,In2Se3
1.8099,In-O-Si,3,In2Si2O7
2.7009000000000003,In-O-Si,3,In2Si2O7
0.2812000000000001,In-O-Sn,3,In2Sn2O7
0.0,In-Pb-Sn,3,In2SnPb
0.0,In-Te,2,In2Te3
0.1364999999999998,In-Te,2,In2Te3
0.0,As-In-Te,3,In2TeAs
1.0165999999999995,In-O-Te,3,In2TeO6
2.634,In-O-W,3,In2WO6
2.5124000000000004,In-O-W,3,In2WO6
0.0,B-Co-In,3,In3(Co10B3)2
0.0,Ag-In,2,In3Ag
0.0,As-In,2,In3As
2.9287,As-F-In,3,In3AsF6
0.201,As-In-Se,3,In3AsSe3
0.0998000000000001,As-In-Se,3,In3AsSe3
0.0,Au-In,2,In3Au
0.0,Au-In,2,In3Au10
0.0,B-In,2,In3B
0.0,Bi-In,2,In3Bi
0.0,Bi-In-Te,3,In3BiTe4
0.0,Cl-In,2,In3Cl
0.0,Co-In,2,In3Co
0.0,Cu-In,2,In3Cu
0.0,As-Cu-In-Se,4,In3Cu(AsSe)2
0.0,Cu-In-O,3,In3Cu3O8
0.6336000000000004,Cu-In-Se-Si,4,In3Cu3SiSe8
0.2720000000000002,Cu-In-Se,3,In3CuSe5
0.0,Ga-In,2,In3Ga
0.0,Ga-In-N,3,In3Ga3N5
0.2461999999999999,Ga-In-N,3,In3GaN4
0.0,Ga-In-N,3,In3GaN4
0.0,Ga-In-Te,3,In3GaTe4
0.0,Ge-In,2,In3Ge
0.0,Hg-In,2,In3Hg
0.0,In-Ir,2,In3Ir
0.0,F-In-N,3,In3NF10
0.0,In-N-O,3,In3NO3
0.0305999999999997,In-N-O,3,In3NO3
0.0,In-Ni,2,In3Ni
0.0,In-Ni,2,In3Ni2
0.0,In-Pb,2,In3Pb
1.0802999999999994,In-N-Pb,3,In3Pb3N5
0.0,In-Pd,2,In3Pd
0.0,In-Pd,2,In3Pd2
0.0,In-Pd,2,In3Pd5
0.0,In-Pt,2,In3Pt
0.0,In-Pt,2,In3Pt2
0.0,In-Pt,2,In3Pt4
0.0,In-Pt,2,In3Pt5
0.0,In-Rh,2,In3Rh
0.2290000000000001,In-Ru,2,In3Ru
0.2095000000000002,In-Ru,2,In3Ru
0.0,In-S,2,In3S
0.0,In-S,2,In3S4
0.0,In-Sb,2,In3Sb
0.0,In-Sb-Te,3,In3SbTe2
0.0,In-Sb-Te,3,In3SbTe4
0.0,In-Se,2,In3Se
0.0,In-Si,2,In3Si
0.0276999999999993,In-N-Si,3,In3Si6N11
0.0,In-Sn,2,In3Sn
0.0,Au-In-Sn,3,In3Sn3Au4
0.0,Au-In-Sn,3,In3SnAu12
0.0,Au-In-Sn,3,In3SnAu4
0.0,In-Te,2,In3Te4
0.0,C-Co-In,3,In4(Co4C)3
1.6232999999999995,In-O-Sn,3,In4(SnO4)3
0.8886000000000003,In-O-Sn,3,In4(SnO4)3
0.8894000000000002,In-O-Sn,3,In4(SnO4)3
0.0224999999999999,As-In-P,3,In4As3P
0.0,As-In-Se,3,In4As3Se
1.2212000000000005,As-In-P,3,In4AsP3
0.0,Bi-In,2,In4Bi
0.0,Bi-In-Pb,3,In4Bi3Pb
9.999999999976694e-05,Ge-In-Sb-Te,4,In4GeSb2Te
3.7106,In-O-P-Pb,4,In4P6Pb2O23
0.0,In-Pb,2,In4Pb
0.0,In-Pd-Se,3,In4Pd17Se4
0.2042999999999999,In-N-S,3,In4S3N2
0.0,In-Sb-Te,3,In4SbTe3
0.0,In-N-Se,3,In4Se3N2
0.2407000000000003,In-S-Sn,3,In4SnS8
0.1779000000000001,Ge-In-N,3,In5(GeN3)2
0.0,In-N-Si,3,In5(SiN3)2
0.1034999999999994,Ag-In-S,3,In5AgS8
0.2236000000000002,Ag-In-Se,3,In5AgSe8
0.2577000000000002,Ag-In-Se,3,In5AgSe8
0.0,B-In-Ir,3,In5B4Ir9
0.0,Bi-In,2,In5Bi3
0.1614000000000004,Cu-In-S,3,In5CuS8
0.4548000000000001,Cu-In-Se,3,In5CuSe8
0.1415000000000006,Cu-In-Te,3,In5CuTe8
0.0,In-Pt,2,In5Pt11
0.0,In-S,2,In5S8
0.0,In-Sb,2,In5Sb3
0.1652999999999993,In-Sb-Sn-Te,4,In5SnSb3Te
0.5671999999999997,Ga-In-O-Pt,4,In6Ga2PtO8
0.0,Ge-In-Ir-O,4,In6Ge2IrO8
1.3445,Ge-In-O-Pt,4,In6Ge2PtO9
0.0,In-O-Re,3,In6ReO12
1.0099,In-O-Te,3,In6TeO12
1.7679999999999998,In-O-W,3,In6WO12
0.4102999999999994,Ge-In-Ir-O,4,In7GeIrO8
0.8483999999999998,In-Ni,2,In7Ni3
0.0,In-Pd,2,In7Pd3
0.0,In-Pt,2,In7Pt3
0.0,Cu-In,2,In9Cu11
0.0,In-Ni,2,In9Ni13
0.0,In-Pt,2,In9Pt13
0.0,Ag-In,2,InAg
0.0,Ag-In-Mo-O,4,InAg(MoO4)2
1.1483,Ag-In-P-S,4,InAg(PS3)2
2.1247000000000003,Ag-In-O-W,4,InAg(WO4)2
0.0,Ag-Bi-In-Se,4,InAg2BiSe4
0.0,Ag-In-Sb-Se,4,InAg2SbSe4
0.0,Ag-In,2,InAg3
3.9157,Ag-C-In-N,4,InAg3(CN)6
1.2216999999999998,Ag-In-O-P,4,InAg3(PO4)2
0.0,Ag-F-In,3,InAg3F6
0.8030999999999999,Ag-F-In,3,InAg3F6
0.0,Ag-In,2,InAg4
0.0,Ag-Au-In,3,InAgAu2
0.8570000000000002,Ag-Ge-In-Se,4,InAgGeSe4
0.0,Ag-I-In,3,InAgI2
0.0,Ag-In-O,3,InAgO2
0.2347000000000001,Ag-In-O,3,InAgO2
0.2182999999999997,Ag-In-O,3,InAgO2
0.4832999999999994,Ag-In-S,3,InAgS2
0.0,Ag-In-S,3,InAgS2
0.3772999999999999,Ag-In-S,3,InAgS2
0.1086999999999998,Ag-In-S,3,InAgS2
0.5082,Ag-In-S,3,InAgS2
0.1136999999999996,Ag-In-S,3,InAgS2
0.0,Ag-In-Se,3,InAgSe2
0.0899,Ag-In-Se,3,InAgSe2
0.1596999999999999,Ag-In-S-Se,4,InAgSeS
0.9214999999999997,Ag-In-S-Sn,4,InAgSnS4
0.7280000000000002,Ag-In-Se-Sn,4,InAgSnSe4
0.0,Ag-In-Te,3,InAgTe2
0.0649999999999999,Ag-In-Te,3,InAgTe2
0.8824000000000001,Ag-In-Se-Te,4,InAgTeSe
0.0,As-In,2,InAs
0.0,As-In-Pd,3,InAs4Pd15
3.3845,As-F-In,3,InAsF6
2.1239,As-H-In-O,4,InAsH2O5
0.0,As-In-O,3,InAsO3
0.0,As-In-Pd,3,InAsPd5
0.0,As-In-Pt,3,InAsPt5
0.0,Au-In,2,InAu3
0.0,Au-In-O,3,InAuO2
4.5332,B-F-In,3,InBF4
1.7912,B-In-N,3,InBN2
1.7745999999999995,B-In-N,3,InBN2
2.6556,B-In-O,3,InBO3
4.0764000000000005,B-H-In-N-O-P,6,InBP2H5NO9
0.0,Bi-In,2,InBi
1.6270000000000002,Bi-Br-In-S,4,InBi2S4Br
1.593,Bi-Cl-In-S,4,InBi2S4Cl
1.2945000000000002,Bi-Br-In-Se,4,InBi2Se4Br
0.0,Bi-In,2,InBi3
0.0451999999999994,Bi-In-O,3,InBiO3
2.7352000000000007,Bi-In-O,3,InBiO3
2.4961,Bi-In-O,3,InBiO3
1.4085,Bi-In-S,3,InBiS3
0.8233999999999999,Bi-In-Se,3,InBiSe3
1.2571,Br-In,2,InBr
2.489,Br-In,2,InBr3
1.9948,Br-In-O,3,InBrO
0.0,C-In,2,InC
0.0,C-In,2,InC3
0.0,C-In,2,InC6
0.0,C-In-N,3,InCN2
0.2719999999999993,C-In-N,3,InCN2
1.4744000000000002,Cl-In,2,InCl
1.4018000000000002,Cl-In,2,InCl
3.0122,Cl-In,2,InCl3
2.3645,Cl-In-O,3,InClO
0.0,Co-In-N,3,InCo3N
0.1966999999999998,Co-In-S-Sn,4,InCo3SnS2
0.0,Co-In-O,3,InCoO3
0.0,Co-In-Si,3,InCoSi2
0.0,Cu-In,2,InCu
0.0,Cu-In-Mo-O,4,InCu(MoO4)2
0.6250999999999998,Cu-In-O-W,4,InCu(WO4)2
0.0,Cu-In,2,InCu2
0.0,Cu-In,2,InCu3
0.5689000000000002,Cu-Hg-In-Se,4,InCu3HgSe4
0.9191000000000004,Cu-In-Pb-Se,4,InCu3PbSe4
0.0,Cl-Cu-In-O,4,InCu6ClO8
1.1346000000000005,Cu-Ge-In-S,4,InCuGeS4
0.6493000000000002,Cu-Ge-In-Se,4,InCuGeSe4
0.0,Cu-In-Ni,3,InCuNi
0.2398999999999995,Cu-In-O,3,InCuO2
0.2515999999999998,Cu-In-O,3,InCuO2
0.0,Cu-In-O,3,InCuO3
0.0,Cu-In-O-P,4,InCuPO5
0.0,Cu-In-Pd,3,InCuPd2
0.0,Cu-In-Pt,3,InCuPt2
0.0436000000000005,Cu-In-S,3,InCuS2
0.0,Cu-In-S,3,InCuS2
0.0,Cu-In-Se,3,InCuSe2
0.1883999999999996,Cu-In-S-Se,4,InCuSeS
0.375,Cu-In-S-Sn,4,InCuSnS4
0.3575999999999997,Cu-In-Se-Sn,4,InCuSnSe4
0.0,Cu-In-Te,3,InCuTe2
0.0,Cu-In-Se-Te,4,InCuTeSe
4.0226,F-In,2,InF3
0.0,Cu-Fe-In-Se,4,InFe(CuSe2)2
0.0,Cu-Fe-In-Te,4,InFe(CuTe2)2
0.2138999999999997,Fe-In-O,3,InFe17O24
0.0,Cu-Fe-In-Se,4,InFe2CuSe4
0.0,As-Fe-In,3,InFeAs
0.0,Co-Fe-In,3,InFeCo2
1.7942000000000005,Co-Fe-In-O,4,InFeCoO4
0.0,Fe-In-Ni,3,InFeNi
1.2138,Fe-In-O,3,InFeO3
0.0,Fe-In-Rh,3,InFeRh2
0.6488,Ag-Ga-In-S,4,InGa(AgS2)2
0.1030999999999999,Ag-Ga-In-Se,4,InGa(AgSe2)2
1.0657,Ag-Ga-In-Te,4,InGa(AgTe2)2
0.0011999999999998,Cu-Ga-In-Se,4,InGa(CuSe2)2
0.1834999999999995,Cu-Ga-In-Te,4,InGa(CuTe2)2
0.9052000000000008,Ga-In-N,3,InGa2N3
0.0,Ga-In,2,InGa3
0.5781999999999998,Ga-In-N,3,InGa3N4
0.0716999999999998,Ga-In-Sb,3,InGa4Sb5
0.0,As-Ga-In,3,InGa5As4
1.0227,Ag-Ga-In-Se-Te,5,InGaAg2(TeSe)2
1.2801,As-Ga-In,3,InGaAs2
0.0,As-Ga-In,3,InGaAs2
0.0,Co-Ga-In-S,4,InGaCoS4
0.0451999999999999,Cu-Ga-In-Se-Te,5,InGaCu2(TeSe)2
0.0024000000000001,Ag-Cu-Ga-In-Se,5,InGaCuAgSe4
0.9116,Ag-Cu-Ga-In-Te,5,InGaCuAgTe4
0.0,Cu-Ga-In-O,4,InGaCuO4
0.2331000000000003,Ga-In-N,3,InGaN2
1.3419999999999996,Ga-In-O,3,InGaO3
0.5607000000000006,Ga-In-P,3,InGaP2
0.0,Ga-In-S,3,InGaS3
1.6761,Ga-In-S,3,InGaS3
0.0,Ga-In-Sb,3,InGaSb2
0.0,Ga-In-Se,3,InGaSe2
1.8685,Ga-In-O-Sn,4,InGaSnO5
0.0,Ga-In-Te,3,InGaTe2
0.0,Ge-In-Sb-Te,4,InGe2SbTe5
0.0,Ge-In,2,InGe3
2.2217,Cl-Ge-In,3,InGeCl3
3.2685,Cl-Ge-In,3,InGeCl3
0.0,Ge-In-N,3,InGeN2
0.0,Ge-In-Te,3,InGeTe2
0.0,H-In,2,InH
3.5905,H-I-In-O,4,InH3(IO4)2
0.0,F-H-In,3,InH3F3
3.4718,C-H-In-O-Se,5,InH4CSeO7
3.6374,Cl-H-In-N,4,InH4NCl4
3.5049,F-H-In-N,4,InH5(NF)2
4.7646,F-H-In-N-O,5,InH5NOF4
3.7734,Cl-H-In-N,4,InH9(NCl)3
1.6522000000000006,H-In-O,3,InHO2
1.6292,H-In-O,3,InHO2
1.7764000000000002,H-In-O,3,InHO2
1.8668000000000005,H-In-O,3,InHO2
2.9993000000000003,H-In-O-Se,4,InHSeO4
3.4401,H-In-O-Se,4,InHSeO4
0.0,Hg-In,2,InHg
0.0,Hg-In,2,InHg3
0.0,Hg-In-Te,3,InHgTe2
0.0,Hg-In-W,3,InHgW2
1.3412000000000002,I-In,2,InI
1.7868000000000002,Br-I-In,3,InI2Br
0.0,In-Mo-S-Se,4,InMo6(SeS)4
0.0,In-Mo-S,3,InMoS2
0.0,In-N,2,InN
0.0,In-N,2,InN3
0.0,In-Ni,2,InNi
0.0,In-Ni,2,InNi2
0.0,Au-In-Ni,3,InNi2Au
0.0,In-Ni-O-Sb,4,InNi2SbO6
0.0,In-Ni-Sn,3,InNi2Sn
0.0,In-Ni,2,InNi3
0.0,In-N-Ni,3,InNi3N
0.0,In-Ni-Sb,3,InNi3Sb
1.4768,Ag-F-In-Ni,4,InNiAg2F7
0.0,In-O,2,InO
0.4049,In-O,2,InO
0.0697000000000001,In-O,2,InO2
0.0,In-O,2,InO3
1.3306999999999998,F-In-O,3,InOF
1.4340000000000006,F-In-O,3,InOF
0.5423,F-In-O,3,InOF2
0.0,In-O-Os,3,InOsO3
0.4546000000000001,In-P,2,InP
0.0,In-P,2,InP
0.5133999999999999,In-P,2,InP
3.8611,H-In-O-P,4,InP(H2O3)2
3.7863,H-In-N-O-P,5,InP2H9(NO4)2
3.6238,H-In-N-O-P,5,InP2H9(NO4)2
0.0,In-P-Pb,3,InP2Pb
0.0,In-P,2,InP3
1.2253000000000005,F-In-P,3,InPF3
3.3244,H-In-O-P,4,InPH2O5
2.7323000000000004,In-O-P,3,InPO4
2.3482000000000003,In-O-P,3,InPO4
1.6123999999999998,In-O-P,3,InPO6
0.0,In-P-Pd,3,InPPd5
0.0,In-P-Pt,3,InPPt5
2.4754000000000005,In-P-S,3,InPS4
0.0,In-Pb,2,InPb
2.5322,Cl-In-Pb,3,InPbCl3
2.9011,Cl-In-Pb,3,InPbCl3
0.0,In-Pd,2,InPd
0.0,In-Pd,2,InPd2
0.0,Au-In-Pd,3,InPd2Au
0.0,In-Pd,2,InPd3
0.0,In-Pd-Se,3,InPd5Se
0.0,In-Pt,2,InPt
0.0,In-Pt,2,InPt2
0.0,In-Pt,2,InPt3
0.0,C-In-Pt,3,InPt3C
0.0,In-O-Pt,3,InPtO3
0.0,Ge-In-Re,3,InReGe
0.0,In-Rh,2,InRh
0.0,In-Rh,2,InRh3
0.0,In-Pb-Rh-S,4,InRh3PbS2
0.3221999999999996,In-O-Rh,3,InRhO3
1.0391000000000004,In-O-Rh,3,InRhO3
0.0,In-O-Rh,3,InRhO3
0.0,In-Ru,2,InRu3
1.3508000000000004,In-S,2,InS
0.4359000000000002,In-S,2,InS
0.0,In-S,2,InS2
0.0,In-N-O-S,4,InS2NO8
0.2917,In-O-S,3,InSO5
0.0,In-Sb,2,InSb
1.5308000000000002,Br-In-S-Sb,4,InSb2S4Br
1.5524999999999998,Cl-In-S-Sb,4,InSb2S4Cl
1.1103000000000005,Br-In-Sb-Se,4,InSb2Se4Br
0.0,In-Sb,2,InSb3
1.5594,In-O-Pb-Sb,4,InSb3Pb4O13
0.0,In-O-Sb,3,InSbO3
1.0427999999999995,In-O-Sb,3,InSbO4
1.4760999999999995,In-S-Sb,3,InSbS3
0.6560999999999999,In-Se,2,InSe
0.4590000000000001,In-Se,2,InSe
1.0804000000000005,In-Se,2,InSe
0.6665000000000001,In-Se,2,InSe
0.0,In-Se,2,InSe2
0.0,In-N-Se,3,InSe2N
0.0,In-N-Si,3,InSi7N10
1.7371000000000008,C-In-N-Si,4,InSiCN
0.0,In-Ir-Si,3,InSiIr
0.0,In-O-Si,3,InSiO3
0.0,In-Pt-Si,3,InSiPt5
0.5186000000000002,In-Si-Te,3,InSiTe3
0.0,In-Si-Te,3,InSiTe3
0.0,In-Sn-Te,3,InSn2Te3
0.0,In-Sn,2,InSn3
0.0,In-Se-Sn,3,InSn3Se4
0.0,In-Sn,2,InSn4
1.0975,Br-In-Sn,3,InSnBr3
1.7904999999999998,Br-In-Sn,3,InSnBr3
2.0788,Cl-In-Sn,3,InSnCl3
3.0433,Cl-In-Sn,3,InSnCl3
0.0,In-Sn-Te,3,InSnTe2
0.0,In-Tc,2,InTc3
0.0,In-Te,2,InTe
0.0,In-Pb-Te,3,InTe5Pb4
1.7355999999999998,Br-In-Te,3,InTeBr
2.9011,Br-In-O-Te,4,InTeBrO3
3.0755,Cl-In-O-Te,4,InTeClO3
3.178,F-In-O-Te,4,InTeO3F
0.0,Ir,1,Ir
0.0,Br-Ir-N,3,Ir(Br3N)2
0.0,Br-Ir-O,3,Ir(Br3O)2
0.0,Cl-F-Ir,3,Ir(Cl2F3)2
0.2946,Cl-Ir-N,3,Ir(N2Cl3)2
0.5113000000000001,Ir-N-O,3,Ir(N3O4)3
0.0,Ir-N-O,3,Ir(N3O4)3
0.0040999999999999,Ir-N-O,3,Ir(N3O4)3
0.4783,Cl-Ir-N,3,Ir(NCl)4
0.0,Cl-Ir-N,3,Ir(NCl3)2
0.0,C-Ir-N,3,Ir2(CN2)3
0.1520000000000001,Ir-O-Pb,3,Ir2Pb2O7
0.0,Ir-O-Ru,3,Ir2Ru2O5
0.7821000000000007,Ir-S,2,Ir2S3
1.1376999999999995,Ir-S,2,Ir2S3
0.0,F-Ir,2,Ir3F
0.0,Ir-Os,2,Ir3Os
0.0,Ir-Pb,2,Ir3Pb
0.0,Ir-Rh,2,Ir3Rh
0.0,Ir-Ru,2,Ir3Ru
0.0,Ir-S,2,Ir3S8
0.0,Ir-Se,2,Ir3Se
0.0,Ir-Se,2,Ir3Se8
0.0,Ir-W,2,Ir3W
0.5691000000000006,C-Ir,2,Ir4C5
0.0,Ir-Os,2,Ir4Os
0.0,Ir-W,2,Ir4W
0.0,C-Ir,2,Ir5C3