eg,chemsys,nelements,formula
0.0,Ba-Co-Ir-O,4,Ba3CoIr2O9
0.0,Ba-Co-N,3,Ba3CoN3
0.0,Ba-Co-O-Ru,4,Ba3CoRu2O9
0.0,Ba-Cr-Mo-O,4,Ba3Cr2MoO9
1.0905999999999998,Ba-Cr-O,3,Ba3Cr2O8
1.1218,Ba-Cr-O,3,Ba3Cr2O8
1.1478000000000002,Ba-Cr-O,3,Ba3Cr2O8
1.0741999999999998,Ba-Cr-O,3,Ba3Cr2O8
0.0,Ba-Cr-O,3,Ba3Cr2O8
1.0490999999999997,Ba-Cr-O,3,Ba3Cr2O8
0.0,Ba-Cr-O-W,4,Ba3Cr2WO9
0.0,Ba-Cr-N,3,Ba3Cr3N5
0.0,Ba-Cr-F,3,Ba3CrF12
0.0,Ba-Cr-N,3,Ba3CrN3
1.5029000000000003,Ba-Cr-O,3,Ba3CrO5
0.0,Ba-Cr-S,3,Ba3CrS5
0.0,Ag-Ba-Cu-P,4,Ba3Cu17AgP6
0.1749,Ba-Cl-Cu-O,4,Ba3Cu2(ClO2)2
0.0,Ba-Cu-N,3,Ba3CuN3
0.0,Ba-Cu-O-Ru,4,Ba3CuRu2O9
0.0,Ba-Cu-O-Sb,4,Ba3CuSb2O9
0.0,Ba-Dy,2,Ba3Dy
1.3959000000000006,Ba-Dy-Mo-O,4,Ba3Dy2MoO9
2.2084,Ba-Dy-O-W,4,Ba3Dy2WO9
3.2313,Ba-Dy-O,3,Ba3Dy4O9
0.0,Ba-Dy-Ir-O-Ru,5,Ba3DyIrRuO9
0.0,Ba-Dy-O-Ru,4,Ba3DyRu2O9
0.0,Ba-Er,2,Ba3Er
0.0,Ba-Cu-Er-O-Pt,5,Ba3Er2Cu2PtO10
2.063,Ba-Er-Mo-O,4,Ba3Er2MoO9
3.2746,Ba-Er-O,3,Ba3Er4O9
0.0,Ba-Er-Ir-O-Ru,5,Ba3ErIrRuO9
0.0,Ba-Er-Mn-O,4,Ba3ErMn2O9
0.0,Ba-Er-O-Ru,4,Ba3ErRu2O9
0.0,Ba-Eu,2,Ba3Eu
0.0,Ba-Eu-Fe-O,4,Ba3Eu3(Fe3O8)2
0.0215,Ba-Eu-O-Ru,4,Ba3EuRu2O9
1.7977999999999998,Ba-Fe-O-Sn,4,Ba3Fe10SnO20
0.3967999999999998,Ba-Fe-Ge-O,4,Ba3Fe2(Ge2O7)2
0.0,Ba-Br-Fe-O,4,Ba3Fe2BrO5
0.0,Ba-Fe-O-Te,4,Ba3Fe2TeO5
1.7012999999999998,Ba-Fe-O-Te,4,Ba3Fe2TeO9
1.5158999999999998,Ba-Fe-O-W,4,Ba3Fe2WO9
0.0,Ba-Fe-N,3,Ba3Fe3N5
0.0,Ba-Fe-O,3,Ba3Fe3O8
1.597,Ba-Fe-Ge-O,4,Ba3FeGe5O14
0.0,Ba-Fe-N,3,Ba3FeN3
0.0,Ba-Fe-O-Ru,4,Ba3FeRu2O9
2.2589999999999995,Ba-Ga-Ge-O,4,Ba3Ga2(Ge2O7)2
0.2804999999999999,Ba-Ga-N,3,Ba3GaN3
0.0,Ba-Gd-Ir-O-Ru,5,Ba3GdIrRuO9
4.1759,B-Ba-Ge-O,4,Ba3Ge2(B3O8)2
0.0,Ba-Ge,2,Ba3Ge5
2.7592,Ba-Ge-O,3,Ba3GeO5
0.0,Ba-H,2,Ba3H
3.5653,Ba-Hf-O,3,Ba3Hf2O7
0.0,Ba-Ho,2,Ba3Ho
0.0,Ba-Cu-Ho-O-Pt,5,Ba3Ho2Cu2PtO10
2.1402,Ba-Ho-Mo-O,4,Ba3Ho2MoO9
3.2565000000000004,Ba-Ho-O,3,Ba3Ho4O9
0.0,Ba-Ho-Ir-O-Ru,5,Ba3HoIrRuO9
0.0,Ba-Ho-O-Ru,4,Ba3HoRu2O9
3.4937,B-Ba-In-O,4,Ba3In(BO3)3
1.2907000000000002,Ba-Br-In-O,4,Ba3In2Br2O5
1.4236000000000004,Ba-Cl-In-O,4,Ba3In2Cl2O5
1.8273,Ba-In-Mo-O,4,Ba3In2MoO9
1.5869000000000004,Ba-F-In-O,4,Ba3In2O5F2
0.8820000000000001,Ba-In-O,3,Ba3In2O6
2.6884,Ba-In-O-W,4,Ba3In2WO9
2.6734,Ba-In-O-W,4,Ba3In2WO9
0.5379000000000005,Ba-In-N,3,Ba3In3N5
0.0,Ba-Hg-In,3,Ba3InHg10
0.0163999999999999,Ba-In-Ir-O,4,Ba3InIr2O9
0.0,Ba-In-Ir-O-Ru,5,Ba3InIrRuO9
0.0,Ba-In-O-Ru,4,Ba3InRu2O9
0.6643000000000003,Ba-C-Ir-N,4,Ba3Ir(CN)3
0.0,Ba-Ir-N,3,Ba3Ir3N5
0.7308,Ba-F-Ir,3,Ba3IrF6
0.0,Ba-Ir-N,3,Ba3IrN3
0.0,Ba-La,2,Ba3La
2.3876,Ba-La-Nb-O-Ti,5,Ba3La2Ti2Nb2O15
0.0,Ba-Cu-La-O,4,Ba3La3(Cu3O7)2
1.4413999999999998,Ba-La-Mn-O-W,5,Ba3La3Mn2(WO6)3
2.4083,Ba-La-Nb-O-Ti,5,Ba3La3Ti4NbO18
0.0,Ba-Cu-La-O-Tl,5,Ba3La5Tl2(Cu2O9)2
3.0435,Ba-In-La-O-W,5,Ba3LaIn(WO6)2
0.0,Ba-Ir-La-O,4,Ba3LaIr2O9
0.0,Ba-Ir-La-O-Ru,5,Ba3LaIrRuO9
1.843,Ba-In-La-Mg-O-W,6,Ba3LaMgIn(WO6)2
2.6586,Ba-La-Nb-O,4,Ba3LaNb3O12
0.0,Ba-La-O-Ru,4,Ba3LaRu2O9
3.181,Ba-La-O-Ta,4,Ba3LaTa3O12
0.0,Ba-Cu-La-O-Y,5,Ba3LaY2(Cu3O7)2
2.0438,Ba-La-O-Re-W-Zn,6,Ba3LaZnReWO12
0.0,Ba-Li,2,Ba3Li
0.0,As-Ba-Li-O,4,Ba3Li(AsO4)2
0.1288999999999998,As-Ba-Li-O,4,Ba3Li(AsO4)2
0.0,Ba-Ir-Li-O,4,Ba3LiIr2O9
0.0,Ba-Ir-Li-O-Ru,5,Ba3LiIrRuO9
0.0,Ba-Li-N,3,Ba3LiN
0.0,Ba-Li-O-Os,4,Ba3LiOs2O9
0.0,Ba-Li-O-Ru,4,Ba3LiRu2O9
0.0,Ba-Li-O-Ti,4,Ba3LiTi3O8
0.0192000000000005,Ba-Li-O-Ti,4,Ba3LiTi3O8
1.8983,Ba-Lu-Mo-O,4,Ba3Lu2MoO9
3.1681000000000004,Ba-Lu-O,3,Ba3Lu4O9
0.0,Ba-Ir-Lu-O,4,Ba3LuIr2O9
0.0,Ba-Ir-Lu-O-Ru,5,Ba3LuIrRuO9
0.0,Ba-Lu-O-Ru,4,Ba3LuRu2O9
1.5036,Ba-Cr-Mg-O,4,Ba3MgCr2O8
0.0,Ba-Ir-Mg-O,4,Ba3MgIr2O9
0.0,Ba-Ir-Mg-O-Ru,5,Ba3MgIrRuO9
0.6212,Ba-Mg-Mn-O,4,Ba3MgMn2O8
1.0764999999999998,Ba-Mg-Mn-O,4,Ba3MgMn3O9
0.3073999999999999,Ba-Mg-Mn-O,4,Ba3MgMn3O9
0.7807000000000004,Ba-Mg-Mn-O,4,Ba3MgMn3O9
1.1981000000000002,Ba-Mg-Mn-O,4,Ba3MgMn3O9
0.0,Ba-Mg-Mn-Nb-O,5,Ba3MgMnNb2O9
0.0,Ba-Co-Mg-Nb-O,5,Ba3MgNb2CoO9
0.0,Ba-Mg-Nb-O,4,Ba3MgNb2O8
2.648,Ba-Mg-Nb-O,4,Ba3MgNb2O9
0.0,Ba-Mg-Nb-O-Zn,5,Ba3MgNb2ZnO9
1.5280999999999998,Ba-Mg-Nb-O-Zn,5,Ba3MgNb2ZnO9
0.0,Ba-Mg-O-Ru,4,Ba3MgRu2O9
2.6494,Ba-Mg-O-Sb,4,Ba3MgSb2O9
3.2733,Ba-Mg-O-Ta,4,Ba3MgTa2O9
2.8443,Ba-Mg-Nb-O-Ta,5,Ba3MgTaNbO9
0.0,Ba-Mg-O-Ti,4,Ba3MgTi2O7
3.0826,Ba-Mg-O-Ti-W,5,Ba3MgTiWO9
0.2309999999999998,Ba-Mg-O-V,4,Ba3MgV2O8
1.1833,Ba-Mg-O-V,4,Ba3MgV2O8
1.7867999999999995,Ba-Mg-O-V,4,Ba3MgV2O8
0.0,Ba-Mg-O-W,4,Ba3MgWO6
0.3692999999999999,Ba-Mg-O-W,4,Ba3MgWO6
0.3723000000000001,Ba-Mg-O-W,4,Ba3MgWO6
0.0,Ba-Mn,2,Ba3Mn
0.0,Ba-Ir-Mn-O,4,Ba3Mn2IrO9
1.4078000000000002,Ba-Mn-O,3,Ba3Mn2O8
0.1984999999999996,Ba-Mn-O-Ru,4,Ba3Mn2RuO9
0.0,Ba-Mn-N,3,Ba3Mn3N5
0.0682,Ba-Mn-O-Pt,4,Ba3Mn4PtO12
0.0570999999999997,Ba-F-Mn,3,Ba3MnF12
0.0,Ba-F-Mn,3,Ba3MnF12
0.0,Ba-F-Mn,3,Ba3MnF6
0.0,Ba-Mn-N,3,Ba3MnN3
0.8176000000000001,Ba-Mn-O,3,Ba3MnO5
1.5103,Ba-Mn-O-Sb,4,Ba3MnSb2O9
0.0,Ba-Mo,2,Ba3Mo
3.1689,Ba-Mo-N-O,4,Ba3Mo2(NO3)2
0.0,Ba-Mo-N,3,Ba3Mo3N5
0.2958000000000003,Ba-Mo-N,3,Ba3MoN3
2.2259,Ba-Mo-O,3,Ba3MoO6
0.0,Ba-N,2,Ba3N
0.0,Ba-N,2,Ba3N2
0.0,Ba-Na,2,Ba3Na
0.1454999999999999,Ba-Na-O-Si,4,Ba3Na(SiO4)2
1.5631,Ba-Na-Nb-O-Ti,5,Ba3Na2Ti3Nb2O15
0.0,B-Ba-Na,3,Ba3NaB24
1.7096000000000002,Ba-Bi-Na-O,4,Ba3NaBiO6
0.0,Ba-Ir-Na-O,4,Ba3NaIr2O9
0.0,Ba-Ir-Na-O,4,Ba3NaIrO6
0.0,Ba-Ir-Na-O-Ru,5,Ba3NaIrRuO9
0.0,Ba-N-Na,3,Ba3NaN
3.0766,Ba-Na-Nb-O,4,Ba3NaNbO6
0.0,Ba-Na-O-Os,4,Ba3NaOs2O9
0.0,Ba-Na-O-Ru,4,Ba3NaRu2O9
0.5280999999999998,Ba-Na-O-Ru,4,Ba3NaRuO6
2.8068,Ba-Na-O-Sb,4,Ba3NaSbO6
3.4044,Ba-Na-O-Ta,4,Ba3NaTaO6
0.0,Ba-Nb,2,Ba3Nb
3.1376,Ba-Nb-O-P,4,Ba3Nb2(P2O9)2
2.8387,Ba-Cd-Nb-O,4,Ba3Nb2CdO9
0.0,Ba-Co-Nb-O,4,Ba3Nb2CoO9
1.6878000000000002,Ba-Co-Nb-O,4,Ba3Nb2CoO9
4.499700000000001,Ba-Nb-O,3,Ba3Nb2O8
2.7287,Ba-Nb-O-Zn,4,Ba3Nb2ZnO9
0.0,Ba-N-Nb,3,Ba3Nb3N5
2.3971,Ba-Fe-Nb-O-Si,5,Ba3NbFe3(SiO7)2
3.2958,Ba-Ga-Nb-O-Si,5,Ba3NbGa3(SiO7)2
0.5491999999999999,Ba-N-Nb,3,Ba3NbN3
0.0,Ba-Nd,2,Ba3Nd
0.0,Ba-Co-Nd-O,4,Ba3Nd3(Co3O8)2
0.0,Ba-Cu-Nd-O,4,Ba3Nd3(Cu3O7)2
0.0,Ba-Co-Nd-O,4,Ba3Nd3Co6O17
0.0,Ba-Ir-Nd-O,4,Ba3NdIr2O9
0.0009000000000001,Ba-Ir-Nd-O-Ru,5,Ba3NdIrRuO9
0.0,Ba-Nd-O-Ru,4,Ba3NdRu2O9
0.0,Ba-N-Ni,3,Ba3Ni3N5
1.4325,Ba-F-Ni,3,Ba3NiF12
0.0,Ba-Ir-Ni-O-Ru,5,Ba3NiIrRuO9
0.0,Ba-N-Ni,3,Ba3NiN3
2.3294999999999995,Ba-Ni-O,3,Ba3NiO4
0.0,Ba-Ni-O-Ru,4,Ba3NiRu2O9
0.5658000000000003,Ba-Ni-O-Ru-Sb,5,Ba3NiSbRuO9
0.0,Ba-Np,2,Ba3Np
0.0,Ba-N-Os,3,Ba3Os3N5
0.6770000000000005,Ba-N-Os,3,Ba3OsN3
0.0688999999999999,Ba-P,2,Ba3P2
0.4838999999999998,Ba-P,2,Ba3P4
5.1274,Ba-O-P,3,Ba3P4O13
1.697,Ba-O-P,3,Ba3P4O13
4.549800000000001,Ba-N-O-P,4,Ba3P6(N4O3)2
0.0,Ba-N-P,3,Ba3PN
0.0,Ba-Pa,2,Ba3Pa
4.6277,Ba-O-Pb-S,4,Ba3Pb(SO4)4
0.0,Ba-O-Pb,3,Ba3PbO
0.0,Ba-Pm,2,Ba3Pm
0.0,Ba-Pr,2,Ba3Pr
5.8738,Ba-F-Pr,3,Ba3PrF9
0.0,Ba-Ir-O-Pr,4,Ba3PrIr2O9
0.0,Ba-Ir-O-Pr-Ru,5,Ba3PrIrRuO9
0.0,Ba-O-Pr-Ru,4,Ba3PrRu2O9
1.5128,Ba-F-Pt,3,Ba3PtF12
0.3789000000000007,Ba-O-Pu,3,Ba3PuO6
0.0,Ba-O-Re,3,Ba3Re2O9
0.0,Ba-N-Re,3,Ba3ReN3
0.6265999999999998,Ba-C-N-Rh,4,Ba3Rh(CN)3
0.0,Ba-F-Rh,3,Ba3RhF12
0.0,Ba-N-Ru,3,Ba3Ru3N5
0.6537,Ba-F-Ru,3,Ba3RuF6
0.8278000000000001,Ba-F-Ru,3,Ba3RuF6
0.0,Ba-N-Ru,3,Ba3RuN3
0.0,Ba-Sb,2,Ba3Sb
0.0,Ba-Sb,2,Ba3Sb2
0.1486999999999998,As-Ba-Sb,3,Ba3SbAs
0.0,As-Ba-Sb,3,Ba3SbAs
0.0,Ba-N-Sb,3,Ba3SbN
0.6988000000000003,Ba-N-Sb,3,Ba3SbN
0.0,Ba-P-Sb,3,Ba3SbP
0.2991999999999999,Ba-P-Sb,3,Ba3SbP
1.5494000000000003,Ba-N-Sc,3,Ba3Sc2N4
1.7797000000000005,Ba-N-Sc,3,Ba3Sc3N5
0.0,Ba-Sc,2,Ba3Sc4
4.549,Ba-C-F-O-Sc,5,Ba3ScCO3F7
0.1950000000000002,Ba-N-Sc,3,Ba3ScN3
0.0,Ba-Se,2,Ba3Se
5.4031,B-Ba-O-Si,4,Ba3Si2(B3O8)2
1.835,Ba-Cl-N-O-Si,5,Ba3Si3N5ClO
4.6093,Ba-N-O-Si,4,Ba3Si6(NO6)2
4.372,Ba-N-O-Si,4,Ba3Si6N4O9
0.0,Ba-F-Si,3,Ba3SiF12
0.0,Ba-O-Si,3,Ba3SiO
3.5341,Ba-O-Si,3,Ba3SiO5
0.0,Ba-Sm,2,Ba3Sm
0.0,B-Ba-Sm,3,Ba3SmB24
0.0,Ba-Ir-O-Sm,4,Ba3SmIr2O9
0.0,Ba-Ir-O-Ru-Sm,5,Ba3SmIrRuO9
0.0,Ba-O-Ru-Sm,4,Ba3SmRu2O9
1.6702999999999997,Ba-O-Sn,3,Ba3Sn2O7
0.0,Ba-F-Sn,3,Ba3SnF6
0.0,Ba-O-Sn,3,Ba3SnO
1.0857,Ba-S-Sn,3,Ba3SnS4
0.0,Ba-Sr,2,Ba3Sr
3.3898,Ba-C-O-Sr,4,Ba3Sr(CO2)8
5.585100000000001,Ba-Cl-F-Sr,4,Ba3Sr(ClF)4
0.0,Ba-Co-O-Sr,4,Ba3Sr(CoO3)4
1.0621999999999998,Ba-Co-O-Sr,4,Ba3Sr(CoO3)4
0.0,Ba-Cu-O-Sr,4,Ba3Sr(CuO3)4
3.982,Ba-Mo-O-Sr,4,Ba3Sr(MoO4)4
0.5954999999999995,Ba-O-Sn-Sr,4,Ba3Sr(SnO3)4
0.0,Ba-Np-Sr,3,Ba3Sr3Np2
2.4311000000000003,Ba-O-Sr,3,Ba3Sr4O7
0.0,Ba-Co-Cu-O-Sr,5,Ba3Sr5Co2(CuO4)6
0.0,Ba-Co-Cu-O-Sr,5,Ba3Sr5Co3Cu5O24
0.0,Ba-Co-Cu-O-Sr,5,Ba3Sr5Co4(CuO6)4
0.0,Ag-Ba-Sr,3,Ba3SrAg4
2.2648,Ba-Ca-Mo-O-Sr,5,Ba3SrCa2(MoO6)2
3.3280000000000003,Ba-Ca-O-Sr-W,5,Ba3SrCa2(WO6)2
0.0,Ba-Co-Cu-O-Sr,5,Ba3SrCo(CuO4)3
0.0,Ba-Co-Cu-O-S-Sr,6,Ba3SrCo2Cu4(SO)4
0.9889,Ba-Er-Mo-O-Sr,5,Ba3SrEr2(MoO6)2
0.0,Ba-Ir-O-Sr,4,Ba3SrIr2O9
1.5910000000000002,Ba-Bi-Lu-O-Sr,5,Ba3SrLu2(BiO6)2
4.4968,Ba-Mg-O-Si-Sr,5,Ba3SrMg2(Si2O7)2
1.9849999999999997,Ba-Mg-O-Sr-Te,5,Ba3SrMg2(TeO6)2
6.687799999999999,Ba-F-Mg-Sr,4,Ba3SrMg4F16
0.0,Ba-Mg-Nb-O-Sr,5,Ba3SrMgNb2O9
0.9994,Ba-Mg-Nb-O-Sr,5,Ba3SrMgNb2O9
2.8291000000000004,Ba-Nb-O-Sr,4,Ba3SrNb2O9
0.0,Ba-Cu-Nd-O-Sr,5,Ba3SrNd2(Cu3O7)2
0.0,Ba-Ir-Nd-O-Sr,5,Ba3SrNd2(IrO6)2
2.1745,Ba-O-Sr,3,Ba3SrO4
0.0,Ba-O-Ru-Sr,4,Ba3SrRu2O9
3.916700000000001,Ba-N-O-Si-Sr,5,Ba3SrSi8(NO)8
0.0,Ba-Cu-O-Sm-Sr,5,Ba3SrSm2(CuO2)6
4.0236,Ba-O-Sr-Ta,4,Ba3SrTa2O9
3.3696,Ba-O-Sr-Ta,4,Ba3SrTa2O9
0.0,Ba-Cu-Hg-O-Sr-Tl,6,Ba3SrTl2Cu2HgO10
3.5883,Ba-O-Sb-Sr-Y,5,Ba3SrY2(SbO6)2
3.3892,Ba-O-Sr-W-Zn,5,Ba3SrZn2(WO6)2
3.4856,Ba-Cd-O-Ta,4,Ba3Ta2CdO9
2.2294,Ba-Co-O-Ta,4,Ba3Ta2CoO9
3.3488,Ba-O-Ta-Zn,4,Ba3Ta2ZnO9
0.0,Ba-N-Ta,3,Ba3Ta3N5
2.5099,Ba-Fe-O-Si-Ta,5,Ba3TaFe3(SiO7)2
0.601,Ba-N-Ta,3,Ba3TaN3
0.0,Ba-Tb,2,Ba3Tb
2.3808,Ba-O-Tb-W,4,Ba3Tb2WO9
0.0,Ba-Ir-O-Ru-Tb,5,Ba3TbIrRuO9
0.0,Ba-O-Ru-Tb,4,Ba3TbRu2O9
0.0,Ba-Te,2,Ba3Te
2.3816,Ba-O-Te,3,Ba3Te2O9
0.0,Ba-Th,2,Ba3Th
0.923,Ba-Se-Th,3,Ba3ThSe7
1.6418,Ba-Fe-O-Ti,4,Ba3Ti(FeO4)2
2.2712,Ba-O-Ti,3,Ba3Ti2O7
2.1313,B-Ba-O-Ti,4,Ba3Ti3(BO6)2
0.0,Ba-Bi-Fe-O-Ti,5,Ba3Ti3Fe3(BiO9)2
0.0,Ba-N-Ti,3,Ba3Ti3N5
0.0,Ba-O-Ti,3,Ba3Ti3O8
3.2524,Al-Ba-O-Ti,4,Ba3TiAl10O20
0.7164999999999999,Ba-F-Ti,3,Ba3TiF12
0.2463000000000001,Ba-Fe-O-Ti,4,Ba3TiFe2O9
0.0,Ba-Fe-O-Ti,4,Ba3TiFe2O9
0.0,Ba-N-Ti,3,Ba3TiN3
2.5342,Ba-O-Ti,3,Ba3TiO5
3.0817,Ba-O-Ti-W-Zn,5,Ba3TiZnWO9
0.0,Ba-Cl-O-Tl,4,Ba3Tl2Cl2O5
0.0,Ba-Tm,2,Ba3Tm
3.2767,Ba-O-Tm,3,Ba3Tm4O9
0.0,Ba-Ir-O-Ru-Tm,5,Ba3TmIrRuO9
0.0,Ba-O-Ru-Tm,4,Ba3TmRu2O9
1.0145000000000004,Ba-Fe-O-U,4,Ba3UFe2O9
1.3951999999999996,Ba-In-O-U,4,Ba3UIn2O9
1.5562,Ba-In-O-U,4,Ba3UIn2O9
2.1572,Ba-O-U,3,Ba3UO6
3.1274,Ba-Ni-O-P-V,5,Ba3V2Ni6(PO6)4
3.7465,Ba-O-V,3,Ba3V2O8
0.0,Ba-N-V,3,Ba3V3N5
0.0,Ba-N-V,3,Ba3VN3
1.2467,Ba-O-V,3,Ba3VO5
3.3742,Ba-O-W,3,Ba3W2O9
0.0,Ba-N-W,3,Ba3W3N5
3.9374,Ba-Cl-O-W,4,Ba3WCl2O5
0.0,Ba-N-W,3,Ba3WN3
3.1514,Ba-O-W,3,Ba3WO6
2.9798,Ba-O-W,3,Ba3WO6
2.3200000000000003,Ba-O-W,3,Ba3WO6
0.0,Ba-Y,2,Ba3Y
0.0,Ba-Cu-O-Pt-Y,5,Ba3Y2Cu2PtO10
1.569,Ba-Mo-O-Y,4,Ba3Y2MoO9
0.6835,Ba-N-Y,3,Ba3Y2N4
2.2427,Ba-O-Y,3,Ba3Y2O6
2.3881,Ba-O-W-Y,4,Ba3Y2WO9
1.1798000000000002,Ba-N-Y,3,Ba3Y3N5
0.0,Ba-Ni-O-Y,4,Ba3Y4(NiO5)3
3.3201,Ba-O-Y,3,Ba3Y4O9
3.373,Ba-O-Y,3,Ba3Y4O9
0.0,Ba-Ni-O-Y,4,Ba3Y5(NiO5)3
0.0,Ba-Ir-O-Y,4,Ba3YIr2O9
0.0,Ba-Ir-O-Ru-Y,5,Ba3YIrRuO9
0.0,Ba-N-Y,3,Ba3YN3
0.0,Ba-O-Ru-Y,4,Ba3YRu2O9
0.2155,Ba-O-Pt-Ru-Y,5,Ba3YRuPtO9
2.8907000000000003,Ba-O-P-Te-Zn,5,Ba3Zn3Te(PO7)2
2.6456000000000004,Ba-O-Si-Te-Zn,5,Ba3Zn6Si4TeO20
0.0,Ba-Ir-O-Zn,4,Ba3ZnIr2O9
0.0,Ba-Ir-O-Ru-Zn,5,Ba3ZnIrRuO9
0.4216000000000002,Ba-N-O-Zn,4,Ba3ZnN2O
0.0,Ba-O-Ru-Zn,4,Ba3ZnRu2O9
1.9685,Ba-O-Sb-Zn,4,Ba3ZnSb2O9
3.0246000000000004,Ba-O-Zr,3,Ba3Zr2O7
5.7721,Ba-F-Zr,3,Ba3ZrF10
0.0,Ba-Ir-O-Zr,4,Ba3ZrIr2O9
0.0598999999999998,Ba-N-Zr,3,Ba3ZrN3
0.0,Ba-O-Ru-Zr,4,Ba3ZrRu2O9
1.8623000000000005,Ag-Au-Ba-O,4,Ba4AgAuO6
0.6692999999999998,As-Ba-O,3,Ba4As2O
2.8024,B-Ba-N-O,4,Ba4B2N4O
0.3070999999999992,Ba-Bi-O-Pb,4,Ba4Bi(PbO4)3
0.4868999999999994,Ba-Bi-O-Pb,4,Ba4Bi(PbO4)3
0.0,Ba-Bi-O-Pb,4,Ba4Bi(PbO4)3
0.3278000000000003,Ba-Bi-O,3,Ba4Bi2O
0.0,Ba-Bi-O,3,Ba4Bi3O11
0.0,Ba-Bi-O-Pb,4,Ba4Bi3PbO12
0.0,Ba-Bi-Ca-O,4,Ba4Ca(BiO4)3
0.0,Ba-Ca-O-Rh,4,Ba4Ca(RhO3)4
0.0,Ba-Ca-Cu-Hg-O,5,Ba4Ca4Cu6Hg2O17
0.1347999999999998,Ba-C-Ca-Cu-O,5,Ba4CaCu2CO9
0.0,Ba-Ca-Cu-Hg-O,5,Ba4CaCu6(HgO8)2
0.0,Ba-Ca-Co-Gd-O,5,Ba4CaGd3(Co4O11)2
0.0,Ba-Ca-Co-Nd-O,5,Ba4CaNd3(Co4O11)2
1.7146999999999997,Ba-Ca-O-Ti,4,Ba4CaTi5O15
3.0906,Ba-Ca-O-Zr,4,Ba4CaZr5O15
3.0705,Ba-Ca-O-Zr,4,Ba4CaZr5O15
3.0277,Ba-Ca-O-Zr,4,Ba4CaZr5O15
0.0,Ba-Bi-Ce-O,4,Ba4Ce2BiO12
2.0237,Ba-Ce-In-O,4,Ba4Ce2In2O11
0.0,Ba-Ce-Cu-Eu-O-Tl,6,Ba4CeEu3Tl2(Cu2O9)2
1.9704,Ba-Ce-Mn-O,4,Ba4CeMn3O12
1.536,Ba-Co-O-Re,4,Ba4Co(ReO6)2
0.0,Ba-Co-N,3,Ba4CoN4
0.0,Ba-Co-Ni-S,4,Ba4CoNi3S8
0.0,Ba-Cr-Mo-O-W,5,Ba4Cr2MoWO12
2.2079000000000004,Ba-Br-Cu-I-O,5,Ba4Cu2IBrO4
0.0,Ba-Br-Cu-O,4,Ba4Cu3BrO6
0.0011000000000001,Ba-Cu-I-O,4,Ba4Cu3IO12
0.0,Ba-Cu-Mo-O,4,Ba4Cu3MoO12
0.0,Ba-Cu-O-Re,4,Ba4Cu3ReO12
0.0,Ba-Cu-O-Se,4,Ba4Cu3SeO12
0.0,Ba-Cu-O-Se,4,Ba4Cu3SeO6
0.0,Ba-Cu-Dy-Ni-O,5,Ba4Dy2Cu6NiO15
0.0,Ba-Er-O-Ru,4,Ba4Er(RuO4)3
0.0,Ba-Cu-Eu-O,4,Ba4Eu2Cu6O13
1.2805999999999995,Ba-Fe-Mo-O-W,5,Ba4Fe2MoWO12
0.0,Ba-Fe-O,3,Ba4Fe9O20
0.0,Ba-Ga-Sn,3,Ba4GaSn3
0.0,Ba-Cu-Gd-O-Y,5,Ba4GdY(Cu3O7)2
1.0221999999999998,Ba-Ge-N,3,Ba4GeN4
0.5937000000000001,Ba-Hf-S,3,Ba4Hf3S10
3.0638000000000005,Ba-Hf-O,3,Ba4HfO6
0.0,Ba-Ho-O-Ru,4,Ba4Ho(RuO4)3
0.0,Ba-In-O,3,Ba4In2O7
0.0,Ba-Bi-In-O,4,Ba4InBiO6
2.4138,Ba-In-O-Sb,4,Ba4InSbO8
0.0,Ba-Ir-N,3,Ba4IrN4
0.0,Ba-Ir-O,3,Ba4IrO6
0.0,Ba-Cu-La-O,4,Ba4La2Cu6O13
0.7580999999999998,Ba-La-O-Ru-Sb,5,Ba4La2SbRuO12
2.1891000000000003,Ba-La-Nb-O-Ti,5,Ba4La2Ti3Nb2O18
0.0,Ba-Co-La-O,4,Ba4La4Co8O23
0.4382000000000001,B-Ba-Cu-La-O,5,Ba4La4Cu4(BO6)3
0.0,Ba-Cu-La-O-Pr,5,Ba4LaPr(Cu3O7)2
2.4743000000000004,Ba-La-Nb-O-Ti,5,Ba4LaTiNb3O15
2.5928000000000004,Ba-La-Nb-O-Ti,5,Ba4LaTiNb3O15
2.4764,B-Ba-Li-N,4,Ba4Li(BN2)3
0.5661,Ba-Bi-Li-O,4,Ba4Li(BiO4)3
0.0,Ba-Ge-Li-O,4,Ba4Li(GeO3)4
0.2366999999999999,Ba-Ge-Li-O,4,Ba4Li(GeO3)4
0.0,Ba-Li-O-Rh,4,Ba4Li(RhO3)4
1.4543999999999997,Ba-Li-O-Sb,4,Ba4Li(SbO4)3
0.0,Ba-Bi-Li-O,4,Ba4LiBi3O11
0.9265,Ba-C-Cu-Li-O,5,Ba4LiCu(CO5)2
0.0,Ba-Cu-Li-O-Y,5,Ba4LiY2Cu5O14
0.2362000000000002,Ba-Bi-Mg-O,4,Ba4Mg(BiO4)3
0.3535999999999997,Ba-Co-Mg-O,4,Ba4Mg(Co2O5)2
0.0,Ba-Co-Mg-O,4,Ba4Mg(Co2O5)2
0.0,Ba-Cu-Mg-O,4,Ba4Mg(CuO2)4
0.0126000000000003,Ba-Cu-Mg-O,4,Ba4Mg(CuO2)4
1.4015,Ba-Fe-Mg-O,4,Ba4Mg(Fe2O5)2
0.3057000000000003,Ba-Fe-Mg-O,4,Ba4Mg(Fe2O5)2
1.3638000000000003,Ba-Fe-Mg-O,4,Ba4Mg(Fe2O5)2
2.3638000000000003,Ba-Ge-Mg-O,4,Ba4Mg(GeO3)4
0.0,Ba-Mg-O-Rh,4,Ba4Mg(RhO3)4
1.5934999999999997,Ba-Mg-N-Si,4,Ba4Mg(SiN3)2
0.0,Ba-Co-Mg-O-Re,5,Ba4MgCo(ReO6)2
0.0,Ba-Mg-O-Ti,4,Ba4MgTi3O10
0.0,Ba-Mg-O-Tl,4,Ba4MgTl8O16
0.0449999999999999,Ba-Mg-O-Tl,4,Ba4MgTl8O16
0.0,Ag-As-Ba-Mn-O,5,Ba4Mn2Ag2As4O17
0.0,Ba-Mn-O,3,Ba4Mn3O10
0.0,Ba-Mn-N,3,Ba4MnN4
2.0441,B-Ba-N-Na,4,Ba4Na(BN2)3
0.2816000000000001,Ba-Bi-Na-O,4,Ba4Na(BiO4)3
0.0,As-Ba-Fe-Na,4,Ba4Na(FeAs)10
0.0,Ba-Ir-Na-O,4,Ba4Na(IrO4)3
1.5158000000000005,Ba-Na-O-Sb,4,Ba4Na(SbO4)3
3.6266,Ba-Na-O-W,4,Ba4Na2W2O11
1.4166,Au-Ba-Na-O,4,Ba4NaAuO8
1.0292,Ba-C-Cu-Na-O,5,Ba4NaCu(CO5)2
0.4433000000000002,Ba-C-Cu-Mg-Na-O,6,Ba4NaMgCu(CO5)2
2.9081,Ba-Nb-O,3,Ba4Nb2O9
2.7361000000000004,Ba-Nb-O-W,4,Ba4Nb2WO12
0.0,Ba-Co-Mo-Nb-O,5,Ba4NbCo2MoO12
0.0,Ba-F-Nb-O-P,5,Ba4NbP4(O9F)2
0.0,Ba-Ir-Nd-O,4,Ba4Nd(IrO4)3
0.0,Ba-Nd-O-Ru,4,Ba4Nd(RuO4)3
0.0,Ba-Cu-Nd-Ni-O,5,Ba4Nd2Cu6NiO15
0.0,Ba-Cu-Nd-O,4,Ba4Nd2Cu6O13
0.0,Ba-Cu-Mn-Nd-O-Ti,6,Ba4Nd4Ti3Mn(Cu2O11)2
0.0,Ba-Mn-Nd-O,4,Ba4NdMn3O12
0.0,Ba-Cu-Nd-O-Y,5,Ba4NdY(CuO2)8
3.6156,Ba-F-O,3,Ba4OF6
3.6833,Ba-F-O,3,Ba4OF6
0.0,Ba-Cl-O-Os,4,Ba4Os6ClO18
1.0411,Ba-O-P,3,Ba4P2O
6.0339,Ba-F-H-P,4,Ba4P3HF24
0.0,Ba-O-Pb,3,Ba4Pb3O10
0.0,Ba-Br-O-Pd,4,Ba4Pd3BrO6
1.273,Ba-O-Pd,3,Ba4PdO6
0.0,Ba-Cu-O-Pr,4,Ba4Pr2(Cu2O5)3
0.0,Ba-Cu-O-Pr,4,Ba4Pr2Cu6O13
0.0,Ba-Bi-O-Pr,4,Ba4Pr3BiO12
0.0,Ba-Co-O-Pr,4,Ba4Pr4Co8O23
0.0724,Ba-Cu-Fe-O-Pr,5,Ba4Pr4Fe4Cu4O21
0.0,Ba-Cu-Dy-O-Pr,5,Ba4PrDy(Cu3O7)2
0.0,Ba-Cu-Er-O-Pr,5,Ba4PrEr(Cu3O7)2
0.0,Ba-Cu-Eu-O-Pr,5,Ba4PrEu(Cu3O7)2
0.0,Ba-Cu-Gd-O-Pr,5,Ba4PrGd(Cu3O7)2
0.0,Ba-Cu-Ho-O-Pr,5,Ba4PrHo(Cu3O7)2
0.0,Ba-Cu-Lu-O-Pr,5,Ba4PrLu(Cu3O7)2
0.0,Ba-Mn-O-Pr,4,Ba4PrMn3O12
0.0,Ba-Cu-Nd-O-Pr,5,Ba4PrNd(Cu3O7)2
0.0,Ba-Cu-O-Pr-Sm,5,Ba4PrSm(Cu3O7)2
0.0,Ba-Cu-O-Pr-Tm,5,Ba4PrTm(Cu3O7)2
0.0,Ba-Cu-O-Pr-Y,5,Ba4PrY(Cu3O7)2
0.0,Ba-Cu-O-Pr-Y,5,Ba4PrY(CuO2)8
0.0,Ba-N-Pt,3,Ba4PtN4
1.8104,Ba-O-Pt,3,Ba4PtO6
1.8907000000000005,Ba-Ni-O-Re,4,Ba4Re2NiO12
0.0,Ba-N-Ru,3,Ba4RuN4
0.6382000000000003,Ba-O-Sb,3,Ba4Sb2O
0.5834000000000001,Ba-Cu-O-Sc,4,Ba4Sc2Cu2O9
1.8841,Ba-O-Re-Sc-W,5,Ba4ScReWO12
1.8951,Ba-Bi-O-Sc-Ti,5,Ba4ScTi4BiO15
0.6517,Ba-N-Sn,3,Ba4SnN4
0.0,Ba-Fe-O-Sr,4,Ba4Sr(FeO3)5
0.5276000000000005,Ba-O-Sn-Sr,4,Ba4Sr(SnO3)5
0.5893999999999995,Ba-O-Sn-Sr,4,Ba4Sr(SnO3)5
1.0072,Ba-Bi-Lu-O-Sr,5,Ba4Sr2Lu3(BiO6)3
3.9096,Ba-O-Sb-Sr-Y,5,Ba4Sr2Y3(SbO6)3
0.0,Ba-Co-Cu-O-Sr,5,Ba4Sr4Co3Cu5O24
0.0,Ba-Co-Cu-O-Sr,5,Ba4Sr4CoCu7O24
3.5926,Ba-Hf-O-Sr,4,Ba4SrHf5O15
1.2891999999999997,Ba-O-Ta-Ti-Zn,5,Ba4Ta2TiZnO12
0.0,Ba-O-Ru-Tb,4,Ba4Tb(RuO4)3
1.8652999999999995,Ba-O-Ti,3,Ba4Ti3O10
2.0772,Ba-O-Ti,3,Ba4Ti3O10
1.7552000000000003,Ba-O-Pb-Ti,4,Ba4Ti5PbO15
0.0,Al-Ba-F-O-P-Ti,6,Ba4TiAl3P4(O5F)4
0.8544000000000005,Ba-N-Ti,3,Ba4TiN4
0.0,Ba-Nb-O-Ti,4,Ba4TiNb9O18
0.0,Ba-Cu-Hg-O-Tl,5,Ba4Tl2Cu2HgO10
0.0,Ba-Cu-O-Tl,4,Ba4Tl4Cu2O11
0.0,Ba-Cu-O-Tm,4,Ba4Tm2Cu6O13
0.1661000000000001,Ba-N-V,3,Ba4VN4
0.0,Ba-Cu-O-W-Y,5,Ba4Y2Cu4W2O17
0.0,Ba-Cu-O-Y,4,Ba4Y2Cu5O14
0.0,Ba-Cu-O-Pd-Y,5,Ba4Y2Cu5PdO14
0.0,Ba-Cu-O-Y,4,Ba4Y2Cu6O13
0.3136000000000001,Ba-Cu-O-Y,4,Ba4Y2Cu7O15
0.0,Ba-Cu-O-Y,4,Ba4Y2Cu7O15
0.0,Ba-Cu-Fe-O-Y,5,Ba4Y2FeCu5O14
0.3197000000000001,Ba-Cu-O-W-Y,5,Ba4YCu(WO6)2
0.0,Ba-O-Ru-Zr,4,Ba4Zr(RuO4)3
0.4167,Ba-S-Zr,3,Ba4Zr3S10
1.7076000000000002,Ba-O-Ti-Zr,4,Ba4Zr3TiO12
0.8917000000000002,Ba-N-Zr,3,Ba4ZrN4
0.0,Ba-Nb-O-Zr,4,Ba4ZrNb9O18
3.1542000000000003,Ba-O-Zr,3,Ba4ZrO6
0.0,Al-Ba-Cu,3,Ba5Al3Cu2
0.0,Al-Ba-Pb,3,Ba5Al5Pb
0.0,Al-Ba-Sn,3,Ba5Al5Sn
0.0,Ba-Bi-O,3,Ba5Bi3O11
0.0,Ba-Cd-O-Sb,4,Ba5Cd2(Sb2O)2
2.1384000000000003,Ba-Ce-O-Zr,4,Ba5Ce4ZrO15
0.0,Ba-Co-O,3,Ba5Co5O14
0.6715999999999998,Ba-Cr-O,3,Ba5Cr5O14
0.0,Ba-Ga-Pb,3,Ba5Ga5Pb
0.0,Ba-Ga-Sn,3,Ba5Ga5Sn
0.0,Ba-In-O,3,Ba5In5O12
0.0,Ba-Ga-La-O,4,Ba5La3(GaO4)4
0.0,Ba-Bi-Mg-O,4,Ba5MgBi3O11
2.5999,Ba-Nb-O,3,Ba5Nb4O15
0.0,Ba-Nb-O,3,Ba5Nb5O14
3.0865,Ba-O-Ta,3,Ba5Ta4O15
0.4577999999999997,Ba-Mo-O-Ti,4,Ba5Ti4MoO15
0.0,Ba-O-V,3,Ba5V5O14
0.0,Ba-Ni-O,3,Ba6(NiO3)5
0.0,Al-Ba-O-Rh,4,Ba6Al2Rh4O15
2.0681000000000003,Ba-Bi-O-Te,4,Ba6Bi2(TeO6)3
1.1639000000000004,Ba-Br-Cl-N,4,Ba6Br2N3Cl
1.1198,Ba-Br-Cl-N,4,Ba6Br2N3Cl
1.2138999999999998,Ba-Br-Cl-N,4,Ba6Br2N3Cl
0.0,Ba-Ca-Ir-O-Ru,5,Ba6Ca2Ir3RuO18
0.0,Ba-Ca-O-Ru-Ta,5,Ba6Ca2Ta(RuO6)3
0.0,Ba-Ca-Cl-Ir-Nb-O,6,Ba6CaNb2Ir(ClO6)2
0.0,Ba-Co-F-O,4,Ba6Co6O16F
0.0,Ba-Cu-Hg-O,4,Ba6Cu3Hg3O13
1.9634,Al-Ba-Dy-O,4,Ba6Dy2Al4O15
0.0,Ba-Cl-Eu-F,4,Ba6Eu(ClF6)2
0.0,Ba-Ge-N,3,Ba6Ge2N7
2.4348,Ba-Hf-O,3,Ba6HfO8
0.0,Al-Ba-Ho-O-Rh,5,Ba6Ho2Al2Rh2O15
0.0,Ba-F-In-N,4,Ba6In2NF
1.5718,Ba-Cl-Ir-Li-Nb-O,6,Ba6LiNb2Ir(ClO6)2
1.3188000000000004,Ba-Cl-Ir-Li-Nb-O,6,Ba6LiNb2Ir(ClO6)2
1.5034,Ba-Cl-Ir-Li-Nb-O,6,Ba6LiNb2Ir(ClO6)2
1.6881999999999997,Ba-Cl-Ir-Li-Nb-O,6,Ba6LiNb2Ir(ClO6)2
1.5715,Ba-Cl-Ir-Li-Nb-O,6,Ba6LiNb2Ir(ClO6)2
0.0,Ba-Cl-Ir-Li-Nb-O,6,Ba6LiNb2Ir(ClO6)2
1.5303999999999998,Ba-Cl-Ir-Li-Nb-O,6,Ba6LiNb2Ir(ClO6)2
1.5421999999999998,Ba-Cl-Ir-Li-Nb-O,6,Ba6LiNb2Ir(ClO6)2
2.9903,Ba-Lu-O-W,4,Ba6Lu2(WO6)3
0.0,Ba-Ir-Mg-O,4,Ba6Mg(IrO3)6
1.2958000000000005,Ba-Co-Mg-O-Sb,5,Ba6MgCo2(Sb2O9)2
0.4962999999999997,Ba-Co-Mg-O-Sb,5,Ba6MgCo2(Sb2O9)2
0.0,Ba-Co-Mg-O-Sb,5,Ba6MgCo2(Sb2O9)2
1.3093,Ba-Cr-Mg-O,4,Ba6MgCr2O10
0.0645999999999995,Ba-Cl-Ir-Mg-Nb-O,6,Ba6MgNb2Ir(ClO6)2
0.0,Ba-Cl-Ir-Mg-Nb-O,6,Ba6MgNb2Ir(ClO6)2
0.2391999999999998,Ba-Cl-Ir-Mg-Nb-O,6,Ba6MgNb2Ir(ClO6)2
0.1575999999999999,Ba-Cl-Ir-Mg-Nb-O,6,Ba6MgNb2Ir(ClO6)2
0.4211999999999998,Ba-Cl-Ir-Mg-Nb-O,6,Ba6MgNb2Ir(ClO6)2
0.0625999999999997,Ba-Cl-Ir-Mg-Nb-O,6,Ba6MgNb2Ir(ClO6)2
0.0562999999999997,Ba-Cl-Ir-Mg-Nb-O,6,Ba6MgNb2Ir(ClO6)2
0.2404999999999999,Ba-Cl-Ir-Mg-Nb-O,6,Ba6MgNb2Ir(ClO6)2
4.1158,Ba-C-F-Mg-O-Sc,6,Ba6MgSc2C2(O3F7)2
0.2665999999999999,Ba-Cl-Co-Mn-O,5,Ba6Mn4Co2ClO16
3.0126000000000004,Ba-Na-Nb-O-P,5,Ba6Na2Nb2P2O17
2.88,Ba-Na-Nb-O-V,5,Ba6Na2Nb2V2O17
0.0,Ba-Cl-Ir-Nb-O,5,Ba6Nb2Ir(ClO6)2
1.1591000000000005,Ba-Mo-Nd-O-Y,5,Ba6Nd2Y(MoO6)3
0.0,Ba-N-O-Os,4,Ba6Os2N6O
0.0,Ba-Mg-O-Pr-Ru,5,Ba6Pr2Mg(Ru2O9)2
0.0,Ba-N-O-Re,4,Ba6Re2N6O
0.1227999999999998,Ba-Cl-O-Pt-Ru,5,Ba6Ru2Pt(ClO6)2
0.0,Ba-Cl-O-Ru,4,Ba6Ru3(ClO6)2
2.0101,Ba-O-Pt-Ti,4,Ba6Ti5PtO18
0.0,Ba-Cl-N-Tl,4,Ba6Tl2NCl
0.0,Ba-O-Pt-Ru-Y,5,Ba6Y2Ru3PtO18
2.6918,Ba-O-Zr,3,Ba6ZrO8
6.0482,Ba-Cl-F,3,Ba7(ClF6)2
5.6222,Ba-Br-Cl-F,4,Ba7BrClF12
0.0,Ba-Ir-O,3,Ba7Ir6O19
2.5316,Ba-Nb-O-Ti,4,Ba7Ti2Nb4O21