eg,chemsys,nelements,formula
1.1330999999999998,Ca-S-Sn,3,Ca2Sn3S8
0.0,Ca-O-Sn,3,Ca2Sn9O13
0.0,Ca-Ge-Sn,3,Ca2SnGe2
0.1485000000000003,Ca-Hg-Sn,3,Ca2SnHg
0.0,Ca-Ir-O-Sn,4,Ca2SnIrO6
0.0078999999999993,Ca-N-Sn,3,Ca2SnN2
0.0,Ca-N-Sn,3,Ca2SnN2
2.7198,Ca-O-Sn,3,Ca2SnO4
9.999999999976694e-05,Ca-S-Sn,3,Ca2SnS4
1.0507999999999995,Ca-S-Sn,3,Ca2SnS4
1.0654000000000003,Ca-S-Sn,3,Ca2SnS4
0.8649000000000004,Ca-S-Sn,3,Ca2SnS4
2.4422999999999995,Ca-S-Sn,3,Ca2SnS4
1.0856,Ca-S-Sn,3,Ca2SnS4
0.0,Ca-S-Sn,3,Ca2SnS4
0.8674,Ca-S-Sn,3,Ca2SnS4
1.0664000000000002,Ca-S-Sn,3,Ca2SnS4
1.7687999999999997,Ca-S-Sn,3,Ca2SnS4
2.2367,Ca-S-Sn,3,Ca2SnS4
0.0,Ca-O-Sb-Sn,4,Ca2SnSbO6
1.476,Ca-O-Sn-W,4,Ca2SnWO6
0.0,Ca-O-Sn-W,4,Ca2SnWO6
2.0470000000000006,Ca-O-Sn-W,4,Ca2SnWO6
0.6813000000000002,Ca-Cu-O-Ta,4,Ca2Ta2CuO8
3.2757000000000005,Ca-Fe-O-Ta,4,Ca2Ta2FeO8
3.5124,Ca-Ni-O-Ta,4,Ca2Ta2NiO8
0.0,Ca-F-O-Ta,4,Ca2Ta2O6F
2.2952,Ca-O-Ta,3,Ca2Ta2O7
2.7348,Ca-O-Sn-Ta,4,Ca2Ta2SnO8
0.0,Ca-O-Ta-Ti,4,Ca2Ta2TiO8
0.1747000000000005,Ca-O-Ta-W,4,Ca2Ta2WO8
0.0,Br-Ca-Cu-O-Ta,5,Ca2Ta3CuBrO10
0.4497,Ag-Ca-O-Ta,4,Ca2TaAgO6
1.8271999999999995,Bi-Ca-O-Ta,4,Ca2TaBiO6
0.3611999999999997,Ca-Co-O-Ta,4,Ca2TaCoO6
2.7922,Ca-Cr-O-Ta,4,Ca2TaCrO6
2.6352,Ca-Cr-O-Ta,4,Ca2TaCrO6
0.0,Ca-Cu-O-Ta,4,Ca2TaCuO6
1.2064,Ca-Fe-O-Ta,4,Ca2TaFeO6
3.8494,Ca-In-O-Ta,4,Ca2TaInO6
0.4808000000000003,Ca-Mn-O-Ta,4,Ca2TaMnO6
1.4283,Ca-Mo-O-Ta,4,Ca2TaMoO6
1.9592000000000005,Ca-N-Ta,3,Ca2TaN3
0.1904000000000003,Ca-Nb-O-Ta,4,Ca2TaNb2O8
0.4256999999999999,Ca-Ni-O-Ta,4,Ca2TaNiO6
0.8163,Ca-O-Sb-Ta,4,Ca2TaSbO6
0.0,Ca-O-Sn-Ta,4,Ca2TaSnO6
0.0,Ca-O-Ta-Ti,4,Ca2TaTiO6
0.4314999999999998,Ca-O-Ta-V,4,Ca2TaVO6
2.1053000000000006,Ca-O-Ta-W,4,Ca2TaWO6
0.0,Ca-O-Ta-W,4,Ca2TaWO6
2.258900000000001,Ca-O-Ta-W,4,Ca2TaWO6
0.3616000000000001,Ca-Fe-O-Tb,4,Ca2TbFeO6
0.0,Ca-Ni-O-Tb,4,Ca2TbNiO6
3.1758,Ca-O-Sb-Tb,4,Ca2TbSbO6
0.0207000000000001,Ca-O-Te,3,Ca2TeO5
1.5348999999999997,Ca-O-Te-W,4,Ca2TeWO6
0.2228000000000003,Ca-O-Te-W,4,Ca2TeWO6
4.986599999999999,Ca-O-Si-Th,4,Ca2Th(Si2O5)4
0.0,Ca-O-Ti,3,Ca2Ti2O5
2.7614,Ca-Ge-O-Si-Ti,5,Ca2Ti2SiGeO10
2.4456999999999995,Ca-O-Ti,3,Ca2Ti3O8
2.7744,Ca-O-Ti,3,Ca2Ti3O8
2.0837000000000003,Ca-N-O-Ti,4,Ca2Ti6N2O11
1.7912999999999997,Ca-N-O-Ti,4,Ca2Ti6N2O11
2.0854000000000004,Ca-N-O-Ti,4,Ca2Ti6N2O11
1.8035,Ca-N-O-Ti,4,Ca2Ti6N2O11
2.1617,Ca-N-O-Ti,4,Ca2Ti6N2O11
0.0,Ca-O-Ti,3,Ca2Ti9O13
0.0,Al-Ca-O-Ti,4,Ca2TiAlO5
3.2274,Al-Ca-F-O-Si-Ti,6,Ca2TiAlSi2O9F
3.0731,Al-Ca-F-O-Si-Ti,6,Ca2TiAlSi2O9F
1.1492,Ca-Cr-O-Ti,4,Ca2TiCrO6
0.0,Ca-Ir-O-Ti,4,Ca2TiIrO6
0.9545999999999996,Ca-Mn-O-Ti,4,Ca2TiMnO6
1.9470000000000005,Ca-Mn-O-Ti,4,Ca2TiMnO6
0.0,Ca-N-Ti,3,Ca2TiN2
0.0472999999999999,Ca-Nb-O-Ti,4,Ca2TiNb2O8
1.6073,Ca-O-Ti,3,Ca2TiO4
0.0,Ca-O-Ru-Ti,4,Ca2TiRuO6
0.0,Ca-O-Sb-Ti,4,Ca2TiSbO6
3.0821,Ca-O-Si-Sn-Ti,5,Ca2TiSi2SnO10
2.3708,Ca-O-Si-Ti,4,Ca2TiSiO6
0.3989000000000002,Ca-O-Ti-W,4,Ca2TiWO6
0.0,Ca-O-Ti-W,4,Ca2TiWO6
1.1670000000000005,Ca-O-Tl,3,Ca2Tl2O5
0.0,Ca-Cd-Tl,3,Ca2TlCd
0.0,Ca-Hg-Tl,3,Ca2TlHg
0.0,Ca-In-Tl,3,Ca2TlIn
0.0,Ca-Pb-Tl,3,Ca2TlPb
0.0,Ca-Sn-Tl,3,Ca2TlSn
0.0,Ca-Tl-Zn,3,Ca2TlZn
0.286,Ca-O-Ru-Tm,4,Ca2TmRuO6
1.8516,Ca-O-U,3,Ca2UO5
0.0,Ca-O-V,3,Ca2V2O5
2.9553000000000003,Ca-O-V,3,Ca2V2O7
0.0598,Ca-O-V,3,Ca2V2O9
3.2257,Ca-O-Pb-V,4,Ca2V2PbO8
1.6111,Ca-O-V,3,Ca2V3O8
1.4962999999999995,Ca-O-V,3,Ca2V3O8
1.9017,Ca-O-V,3,Ca2V3O8
0.6405999999999992,Bi-Ca-O-V,4,Ca2VBiO6
3.0645,Bi-Ca-O-V,4,Ca2VBiO6
3.4639000000000006,Ca-Cl-O-V,4,Ca2VClO4
0.4312000000000004,Ca-Ir-O-V,4,Ca2VIrO6
0.6962000000000002,Ca-Mo-O-V,4,Ca2VMoO6
0.0,Ca-N-V,3,Ca2VN2
0.0,Ca-N-V,3,Ca2VN3
1.6511999999999998,Ca-N-V,3,Ca2VN3
0.0,Ca-O-Sb-V,4,Ca2VSbO6
0.8828999999999994,Ca-O-V-W,4,Ca2VWO6
1.021,Ca-O-V-W,4,Ca2VWO6
0.0,Ca-O-V-W,4,Ca2VWO6
0.0,Ca-O-W,3,Ca2W2O5
2.7728999999999995,Ca-O-W,3,Ca2W3O8
0.4766000000000003,Ca-O-W,3,Ca2W3O8
0.0,Ca-O-W,3,Ca2W9O13
0.0,Ca-N-W,3,Ca2WN2
0.0,Ca-O-W,3,Ca2WO5
2.7236,Ca-O-W,3,Ca2WO5
2.9399,Ca-O-W,3,Ca2WO5
0.0,Ag-Ca-O-Y,4,Ca2YAgO5
3.6919,As-Ca-O-W-Y,5,Ca2YAs(WO6)2
0.0,Be-Ca-O-Y,4,Ca2YBeO5
2.3923,Bi-Ca-O-Y,4,Ca2YBiO5
2.1221,Bi-Ca-O-Y,4,Ca2YBiO6
0.5688,Ca-Co-O-Y,4,Ca2YCoO5
2.1246,Ca-Cr-O-Y,4,Ca2YCrO5
0.0,Ca-Cu-O-Y,4,Ca2YCuO5
0.9384,Ca-Fe-O-Y,4,Ca2YFeO5
0.2160000000000002,Ca-Mn-O-Y,4,Ca2YMnO5
0.0,Ca-Mo-O-Y,4,Ca2YMoO5
3.3203,Ca-Nb-O-Y,4,Ca2YNbO6
0.0,Ca-Ni-O-Y,4,Ca2YNiO5
2.9151,Ca-O-Sb-Y,4,Ca2YSbO5
2.4941000000000004,Ca-O-Sn-Y,4,Ca2YSnO5
0.0,Ca-O-Ti-Y,4,Ca2YTiO5
1.6137,Ca-O-V-Y,4,Ca2YVO5
0.9064000000000004,Ca-O-W-Y,4,Ca2YWO5
0.0,Ca-Zn,2,Ca2Zn
0.2778,Ca-Cu-P-Zn,4,Ca2Zn2CuP3
0.0,Ag-Ca-Zn,3,Ca2Zn3Ag
0.0,Ca-Ga-Zn,3,Ca2Zn3Ga
3.3532,As-Ca-H-O-Zn,5,Ca2ZnAs2(H2O5)2
3.3688,As-Ca-H-O-Zn,5,Ca2ZnAs2(H2O5)2
0.0,Ca-Cd-Zn,3,Ca2ZnCd
3.2058,Ca-Fe-O-Si-Zn,5,Ca2ZnFe(SiO3)4
0.0,Ca-Ga-Zn,3,Ca2ZnGa
0.0,Ca-Ga-Zn,3,Ca2ZnGa3
3.0488,Ca-Ge-O-Zn,4,Ca2ZnGe2O7
0.0,Ca-Hg-Zn,3,Ca2ZnHg
0.0,Ca-In-Zn,3,Ca2ZnIn
0.7618,Ca-N-Zn,3,Ca2ZnN2
4.6954,Ca-H-O-P-Zn,5,Ca2ZnP2(H2O5)2
0.0,Ca-Pb-Zn,3,Ca2ZnPb
0.0,Ca-Rh-Zn,3,Ca2ZnRh
4.0553,Ca-O-Si-Zn,4,Ca2ZnSi2O7
0.0,Ca-Sn-Zn,3,Ca2ZnSn
0.0,Ca-Fe-O-Zr,4,Ca2ZrFeO6
0.0,Ca-Nb-O-Zr,4,Ca2ZrNbO6
3.5577,Ca-O-Sn-Zr,4,Ca2ZrSnO6
3.0146,Ca-Ge-O-Ti-Zr,5,Ca2ZrTi(GeO5)2
3.1228,Ca-O-Si-Ti-Zr,5,Ca2ZrTi(SiO5)2
2.3932999999999995,Ca-O-Ti-Zr,4,Ca2ZrTiO6
1.1101,Al-As-Ca,3,Ca3(AlAs2)2
1.1222999999999996,Al-As-Ca,3,Ca3(AlAs2)2
0.0,Al-Ca-Ge,3,Ca3(AlGe)2
2.5264,Al-Ca-N,3,Ca3(AlN2)2
2.2854,Al-Ca-N,3,Ca3(AlN2)2
1.2481999999999998,Al-Ca-P,3,Ca3(AlP2)2
0.0,Al-Ca-Si,3,Ca3(AlSi)2
0.0,B-Ca-Rh,3,Ca3(B3Rh4)2
4.8224,B-Ca-O,3,Ca3(BO3)2
1.5093,Bi-Ca-N,3,Ca3(BiN2)2
0.0,C-Ca-N,3,Ca3(CN2)2
0.0,Ca-Cd-Ga,3,Ca3(CdGa2)2
0.0,Ca-Cl-O,3,Ca3(ClO3)2
0.9202999999999996,Ca-Co-O,3,Ca3(CoO3)2
0.3308,Ca-Co-O,3,Ca3(CoO3)2
0.7642,Ca-Co-O,3,Ca3(CoO3)2
0.0,Ca-Co-O,3,Ca3(CoO3)2
0.0,Ca-Cr-N,3,Ca3(CrN2)2
0.0,Ca-Cr-N,3,Ca3(CrN3)2
0.0,Ca-Cu-O,3,Ca3(CuO3)2
0.0,Ca-Fe-N,3,Ca3(FeN2)2
1.9148000000000005,Ca-Ga-N,3,Ca3(GaN2)2
0.0,Ca-Ga-Ni,3,Ca3(GaNi)4
0.9434000000000003,Ca-Ga-P,3,Ca3(GaP2)2
0.0,Ca-Ge-Ir,3,Ca3(GeIr)4
2.9383,Ca-H-O,3,Ca3(HO3)2
0.0,As-Ca-In,3,Ca3(InAs2)2
0.0,Ca-Ga-In,3,Ca3(InGa2)2
0.8519000000000005,Ca-In-N,3,Ca3(InN2)2
0.0,Ca-Ir-N,3,Ca3(IrN2)2
0.0,Ca-Mn-N,3,Ca3(MnN2)2
0.0,Ca-Mo-N,3,Ca3(MoN2)2
0.0,Ca-N-Nb,3,Ca3(NbN2)2
0.0,Ca-N-Ni,3,Ca3(NiN2)2
0.0,Ca-N-Os,3,Ca3(OsN2)2
5.4644,Ca-O-P,3,Ca3(PO4)2
4.5074,Ca-O-P,3,Ca3(PO4)2
0.0,Ca-N-Re,3,Ca3(ReN2)2
0.0,Ca-N-Rh,3,Ca3(RhN2)2
0.0,Ca-O-Ru,3,Ca3(Ru2O7)2
0.0,Ca-N-Ru,3,Ca3(RuN2)2
1.5422000000000002,Ca-N-Sb,3,Ca3(SbN2)2
0.8393,Ca-O-Si,3,Ca3(Si3O11)2
0.0,Ca-Ir-Si,3,Ca3(SiIr)4
0.0,Ca-O-Si,3,Ca3(SiO5)2
0.0453999999999998,Ca-N-Ta,3,Ca3(TaN2)2
0.0,Ca-N-Ti,3,Ca3(TiN2)2
0.0,Ca-S-Ti,3,Ca3(TiS2)4
0.0,Ca-N-V,3,Ca3(VN2)2
0.0084999999999997,Ca-N-W,3,Ca3(WN2)2
0.0,Ac-Ca,2,Ca3Ac
0.0,Ag-Ca,2,Ca3Ag
0.0,Ag-Ca,2,Ca3Ag8
0.0,Al-Ca-O,3,Ca3Al2O6
2.557300000000001,Al-Ca-N,3,Ca3Al3N5
0.0,Al-Ca-O-Si,4,Ca3Al4SiO12
0.0,Ag-Al-Ca,3,Ca3Al7Ag2
0.0,Al-Ca-Cu,3,Ca3Al7Cu2
2.4565,Al-Ca-N,3,Ca3AlN3
0.0,As-Ca,2,Ca3As2
1.6726,As-Br-Ca,3,Ca3AsBr3
1.8439,As-Ca-Cl,3,Ca3AsCl3
0.0,As-Ca-N,3,Ca3AsN
0.8940000000000001,As-Ca-N,3,Ca3AsN
0.7169999999999996,As-Ca-N,3,Ca3AsN
0.1926999999999998,As-Ca-P,3,Ca3AsP
0.1089000000000002,As-Ca-P,3,Ca3AsP
0.0,Au-Ca,2,Ca3Au4
0.0,Au-Ca-N,3,Ca3AuN
2.6709000000000005,B-Ca-N,3,Ca3B3N5
4.7904,B-Ca-H-O,4,Ca3B4(H4O)3
0.5682,B-Ca-N,3,Ca3BN3
5.319,Be-Ca-H-O-P,5,Ca3Be2P4(HO2)10
0.0,Bi-Ca,2,Ca3Bi2
0.199,As-Bi-Ca-O,4,Ca3Bi2(AsO6)2
0.0,Bi-Ca-O,3,Ca3Bi2O7
0.6585999999999999,Bi-Ca-N,3,Ca3Bi3N5
0.0,As-Bi-Ca,3,Ca3BiAs
0.0,Au-Bi-Ca,3,Ca3BiAu14
0.0,Bi-Ca-N,3,Ca3BiN
0.3687000000000004,Bi-Ca-N,3,Ca3BiN
0.0759000000000003,Bi-Ca-P,3,Ca3BiP
0.0,Bi-Ca-P,3,Ca3BiP
0.0,Bi-Ca-Sb,3,Ca3BiSb
1.2768000000000002,C-Ca-Cl,3,Ca3C3Cl2
0.0,Ca-Cd,2,Ca3Cd
1.7349,Ca-Cd-O,3,Ca3CdO4
2.52,Ca-Cd-O,3,Ca3CdO4
0.0801,Ca-Co-O-Rh,4,Ca3Co2(RhO6)2
1.3937,Ca-Co-O-Si,4,Ca3Co2(Si2O7)2
0.7887999999999997,Ca-Co-O-Te,4,Ca3Co2(TeO6)2
0.9476,Ca-Co-O-W,4,Ca3Co2(WO6)2
0.1744999999999996,Ca-Co-O,3,Ca3Co2O7
0.3367,Ca-Co-O,3,Ca3Co2O7
0.0,Ca-Co-N,3,Ca3Co3N5
0.0,Ca-Co-N,3,Ca3CoN3
0.0,Ca-Co-O,3,Ca3CoO6
0.0244999999999997,Ca-Co-O-Rh,4,Ca3CoRhO6
0.7603999999999997,Ca-Co-O-Rh,4,Ca3CoRhO6
0.0,Ca-Cr-O,3,Ca3Cr2O7
0.0,Ca-Cr-N,3,Ca3Cr3N5
0.0624,Ca-Cr-F,3,Ca3CrF6
0.0,Ca-Cr-N,3,Ca3CrN3
0.0,Br-Ca-Cu-O,4,Ca3Cu2(BrO2)2
0.0,Ca-Cl-Cu-O,4,Ca3Cu2(ClO2)2
0.0,Ca-Cu-Ir-O,4,Ca3CuIrO6
0.0,Ca-Cu-N,3,Ca3CuN3
0.0,Ca-Cu-O-Rh,4,Ca3CuRhO6
0.0,Ca-Dy,2,Ca3Dy
0.7532000000000005,Ca-Er-S-Sn,4,Ca3Er2(SnS4)3
3.8417,B-Ca-Er-Ge-O,5,Ca3Er3Ge2BO13
0.0,Ca-Eu,2,Ca3Eu
0.0,Ca-Fe-Mo-O,4,Ca3Fe2(MoO6)2
1.3365,Ca-Fe-O-Re,4,Ca3Fe2(ReO6)2
0.0,Ca-Fe-O-Rh,4,Ca3Fe2(RhO6)2
0.0,Ca-Fe-O-Sb,4,Ca3Fe2(SbO6)2
1.9666,Ca-Fe-O-W,4,Ca3Fe2(WO6)2
1.7685,Ca-Fe-O-W,4,Ca3Fe2(WO6)2
0.0,Br-Ca-Fe-O,4,Ca3Fe2Br2O5
0.0,Ca-Cl-Fe-O,4,Ca3Fe2Cl2O5
0.0,Ca-Fe-O,3,Ca3Fe2O7
0.0,Ca-Fe-N,3,Ca3Fe3N5
0.0,Ca-Fe-O-Sn,4,Ca3Fe5Sn3O16
1.5414000000000003,Ca-Fe-O-Sn,4,Ca3Fe6(SnO8)2
0.0,Ca-Fe-N,3,Ca3FeN3
0.0798000000000001,Ca-Fe-Ga-O,4,Ca3Ga2(FeO5)2
3.0145,Ca-Ga-Ge-O,4,Ca3Ga2(Ge2O7)2
0.0,Ca-Ga-Ge-O,4,Ca3Ga3Ge3O14
1.7016999999999998,Ca-Ga-N,3,Ca3Ga3N5
0.0,Ca-Ga,2,Ca3Ga5
0.0,Ca-Ga,2,Ca3Ga8
0.8826,Ca-Ga-N,3,Ca3GaN3
0.0,Al-Ca-Gd,3,Ca3GdAl8
0.0,Au-Ca-Ge,3,Ca3Ge4Au7
0.0,Ca-Ge-N,3,Ca3GeN
0.1401999999999992,Ca-Ge-O,3,Ca3GeO
0.0,Ca-Ge-O,3,Ca3GeO
0.0,Ca-Hg,2,Ca3Hg
0.0,Ca-Hg,2,Ca3Hg2
0.0,Ca-Ho,2,Ca3Ho
0.0,Ca-Ho-Mn-O,4,Ca3HoMn4O12
0.0,Ca-In,2,Ca3In
0.5723000000000003,Ca-In-N,3,Ca3In3N5
0.5342000000000002,Ca-In-N,3,Ca3InN3
0.0,Ca-Ir-N,3,Ca3Ir3N5
0.0,Ca-La-O-Sb,4,Ca3La2Sb3O14
0.0,Ca-Cu-La-Mn-O,5,Ca3La5Mn6(CuO12)2
0.0,Ca-Cr-La-Mn-O,5,Ca3La5Mn7CrO24
0.0,Ca-Fe-La-Mn-O,5,Ca3La5Mn7FeO24
0.0,Ca-La-Mn-Ni-O,5,Ca3La5Mn7NiO24
0.7500999999999998,Ca-Fe-La-Mo-O,5,Ca3LaFe2(MoO6)2
0.0,Ca-Ir-La-Mn-O,5,Ca3LaMn2(IrO6)2
0.0,Ca-La-Mn-O,4,Ca3LaMn4O12
0.0083999999999999,Ca-La-Mn-O,4,Ca3LaMn4O12
0.0,Ca-La-Si,3,Ca3LaSi8
0.7309000000000001,Ca-Cr-La-O-Ti,5,Ca3LaTi2Cr2O12
0.0,Ca-Lu,2,Ca3Lu
0.0,Ca-Mg,2,Ca3Mg
4.030200000000001,C-Ca-Fe-Mg-O,5,Ca3Mg2Fe(CO3)6
0.0,Ca-Mg-Ni,3,Ca3Mg2Ni13
4.7643,Ca-Mg-O-Si,4,Ca3Mg5(SiO3)8
3.8204,C-Ca-Fe-Mg-O,5,Ca3MgFe2(CO3)6
0.0,Ca-Mg-Ni,3,Ca3MgNi14
0.0,Ca-Mn,2,Ca3Mn
0.0,Ca-Fe-Mn-O,4,Ca3Mn2(FeO5)2
0.2241999999999999,Ca-Ga-Mn-O,4,Ca3Mn2(GaO5)2
0.1267,Ca-Ga-Mn-O,4,Ca3Mn2(GaO5)2
0.0,Ca-Ir-Mn-O,4,Ca3Mn2(IrO6)2
0.5124,Ca-Mn-O-Sb,4,Ca3Mn2(SbO6)2
1.7350000000000003,Ca-Mn-O-W,4,Ca3Mn2(WO6)2
0.0,Ca-Mn-O,3,Ca3Mn2O7
0.2273999999999998,Ca-Mn-O,3,Ca3Mn2O7
0.4097999999999997,Ca-Mn-O,3,Ca3Mn2O7
0.0,Ca-Mn-N,3,Ca3Mn3N5
0.0,Bi-Ca-Mn-O,4,Ca3Mn4BiO12
2.1034,Ca-Co-Mn-O,4,Ca3MnCoO6
0.4420999999999999,Ca-Co-Mn-O,4,Ca3MnCoO6
0.0,Ca-F-Mn,3,Ca3MnF6
0.0,Ca-Mn-N,3,Ca3MnN3
0.0,Ca-Mn-Ni-O,4,Ca3MnNiO6
2.908,Ca-Mn-O,3,Ca3MnO4
2.5182,Ca-Mn-O,3,Ca3MnO4
2.2453000000000003,Ca-Mn-O-Zn,4,Ca3MnZnO6
1.4979000000000005,Ca-Mo-O,3,Ca3Mo2O7
0.0,Ca-Mo-N,3,Ca3Mo3N5
0.0,Ca-Mo-N,3,Ca3MoN3
0.0,Ca-N,2,Ca3N2
0.7787000000000002,Ca-N,2,Ca3N2
1.4173000000000004,Ca-N,2,Ca3N2
1.3741999999999996,Ca-N,2,Ca3N2
1.3593000000000002,Ca-N,2,Ca3N2
1.2985999999999995,Ca-N,2,Ca3N2
0.0,Ca-N-Nb,3,Ca3Nb3N5
2.6894,Ca-F-Nb-O,4,Ca3Nb4(O6F)2
3.4364000000000003,Ca-Ga-Nb-O-Si,5,Ca3NbGa3(SiO7)2
0.0,Ca-Nb-O,3,Ca3NbO6
0.0,Ca-Nd,2,Ca3Nd
0.0,Ca-Nd-O-Sb,4,Ca3Nd2Sb3O14
6.1386,Ca-F-Nd,3,Ca3NdF9
0.0,Ca-Mn-Nd-O,4,Ca3NdMn2O8
0.0,Ca-Mn-Nd-O,4,Ca3NdMn4O12
0.0,Ca-Ni-O-W,4,Ca3Ni2(WO6)2
0.6125,Ca-Ni-O-W,4,Ca3Ni2(WO6)2
0.0,Ca-Ni-O,3,Ca3Ni2O7
0.0,Ca-N-Ni,3,Ca3Ni3N5
0.0,B-Ca-Ni,3,Ca3Ni7B2
0.0,Ca-N-Ni,3,Ca3NiN3
0.0,Ca-Os,2,Ca3Os
0.0,Ca-N-Os,3,Ca3Os3N5
0.3549000000000002,Ca-P,2,Ca3P2
1.8419000000000003,Ca-Cl-P,3,Ca3PCl3
0.0,Ca-N-P,3,Ca3PN
0.8055999999999996,Ca-N-P,3,Ca3PN
0.0,Ca-Pb,2,Ca3Pb
0.0,Ca-N-Pb,3,Ca3PbN
0.0,Ca-O-Pb,3,Ca3PbO
1.9182,Ca-Pb-Se,3,Ca3PbSe4
0.0,Ca-Pd,2,Ca3Pd2
0.0,Ca-Pm,2,Ca3Pm
0.0,Ca-O-Pr-Sb,4,Ca3Pr2Sb3O14
0.0,Ca-Pt,2,Ca3Pt2
0.0,Ca-N-Re,3,Ca3Re3N5
0.0,Ca-N-Re,3,Ca3ReN3
0.0,Ca-O-Re,3,Ca3ReO6
0.0,Ca-N-Rh,3,Ca3RhN3
0.0,Ca-O-Ru,3,Ca3Ru2O7
0.0,Ca-N-Ru,3,Ca3Ru3N5
0.0853999999999999,Ca-Sb,2,Ca3Sb2
0.0,Ca-O-Sb,3,Ca3Sb2O7
0.4005999999999998,As-Ca-Sb,3,Ca3SbAs
0.0,As-Ca-Sb,3,Ca3SbAs
0.4075000000000006,Ca-N-Sb,3,Ca3SbN
0.0,Ca-N-Sb,3,Ca3SbN
0.6583000000000001,Ca-P-Sb,3,Ca3SbP
0.0,Ca-P-Sb,3,Ca3SbP
2.2562,Ca-N-Sc,3,Ca3Sc2N4
1.8365,Ca-N-Sc,3,Ca3Sc3N5
0.8569,Ca-Co-O-Sc,4,Ca3ScCoO6
0.3366000000000002,Ca-N-Sc,3,Ca3ScN3
4.856300000000001,Ca-H-O-Si,4,Ca3Si2(H3O5)2
4.363,Ca-Ge-O-Si,4,Ca3Si2GeO9
4.746,Ca-H-O-Si,4,Ca3Si3(HO5)2
0.0,Br-Ca-Si,3,Ca3SiBr2
0.3170000000000001,Br-Ca-Si,3,Ca3SiBr2
0.1866000000000003,Ca-O-Si,3,Ca3SiO
0.0699999999999994,Ca-O-Si,3,Ca3SiO
0.0565999999999995,Ca-O-Si,3,Ca3SiO
3.8608,Ca-O-Si,3,Ca3SiO5
3.6973,Ca-O-Si,3,Ca3SiO5
2.9146,Ca-O-Si,3,Ca3SiO5
3.0522,Ca-O-Si,3,Ca3SiO5
3.2782,Ca-O-Si,3,Ca3SiO5
0.0,Ca-Sm,2,Ca3Sm
0.0,Ca-Mn-O-Sm,4,Ca3SmMn4O12
0.0,Ca-Sn,2,Ca3Sn
2.5854000000000004,Ca-O-Sn,3,Ca3Sn2O7
0.0,Ca-S-Sn,3,Ca3Sn2S7
0.1459,Ca-F-Sn,3,Ca3SnF6
0.0,Ca-F-Sn,3,Ca3SnF6
0.1117999999999996,Ca-H-Sn,3,Ca3SnH2
0.0,Ca-N-Sn,3,Ca3SnN
0.0,Ca-O-Sn,3,Ca3SnO
0.0236,Ca-S-Sn,3,Ca3SnS5
1.0141,Ca-S-Sn,3,Ca3SnS5
0.4045000000000001,Ca-Mn-O-Ta,4,Ca3Ta2Mn2O12
4.5215000000000005,Ca-O-Ta,3,Ca3Ta2O8
4.2097,Ca-O-Ta,3,Ca3Ta2O8
0.0,Ca-N-Ta,3,Ca3Ta3N5
3.5696000000000003,Ca-F-O-Ta,4,Ca3Ta4(O6F)2
3.9122,Ca-Ga-O-Si-Ta,5,Ca3TaGa3(SiO7)2
0.0,Ca-Tb,2,Ca3Tb
0.0,Ca-Mn-O-Tb,4,Ca3TbMn4O12
3.2598,Ca-O-Te,3,Ca3TeO6
1.9589,Ca-Fe-O-Ti,4,Ca3Ti(FeO4)2
2.5302,Ca-O-Ti,3,Ca3Ti2O7
0.0,Ca-N-Ti,3,Ca3Ti3N5
1.6864999999999997,Ca-O-Pb-Ti,4,Ca3Ti4PbO12
0.4896000000000002,Ca-N-Ti,3,Ca3TiN3
3.1552,Ca-Ni-O-Ti,4,Ca3TiNiO6
0.1251999999999995,Ca-Ni-O-Ti,4,Ca3TiNiO6
0.0,Ca-Tl,2,Ca3Tl
0.8115999999999999,Ca-O-Tl,3,Ca3Tl4O9
0.0,Ca-Tl,2,Ca3Tl5
0.0,Ca-N-Tl,3,Ca3TlN
0.0,Ca-O-Tl,3,Ca3TlO5
0.0,Ca-U,2,Ca3U
1.3332999999999997,Ca-N-U,3,Ca3UN4
1.3689,Ca-N-U,3,Ca3UN4
2.1989,Ca-O-U,3,Ca3UO6
2.2601,Ca-O-U,3,Ca3UO6
2.1479,Ca-O-U,3,Ca3UO6
0.0,Ca-V,2,Ca3V
0.5543,Bi-Ca-O-V,4,Ca3V2(BiO6)2
0.9998000000000004,Ca-O-V,3,Ca3V2O7
3.478,Ca-O-V,3,Ca3V2O8
3.4422000000000006,Ca-O-V,3,Ca3V2O8
0.0,Ca-N-V,3,Ca3V3N5
0.7644999999999995,Ca-N-V,3,Ca3VN3
0.0,Ca-W,2,Ca3W
2.4024,Ca-O-W,3,Ca3W2O7
0.0,Ca-N-W,3,Ca3W3N5
3.2967,Ca-O-W,3,Ca3WO6
3.4487,Ca-O-W,3,Ca3WO6
0.0,Ca-Y,2,Ca3Y
1.0999999999999996,Ca-N-Y,3,Ca3Y2N4
0.8575999999999997,Ca-N-Y,3,Ca3Y3N5
0.2003999999999997,Ca-N-Y,3,Ca3YN3
0.0,Ca-O-Ti-Y,4,Ca3YTi4O12
0.0,Ca-Zn,2,Ca3Zn
0.0428999999999994,Ca-Cu-P-Zn,4,Ca3Zn2(CuP2)2
2.1462,Ca-Ge-O-Zn,4,Ca3ZnGe5O14
2.0499,Ca-Se-Zn,3,Ca3ZnSe4
0.0,Ca-N-Zr,3,Ca3Zr2N4
3.3234,Ca-O-Zr,3,Ca3Zr2O7
0.0,Ca-Cu-O,3,Ca4(CuO2)5
0.0,Ca-H-Rh,3,Ca4(H4Rh)3
0.0,Al-Ca,2,Ca4Al
0.0,Al-C-Ca-H-O,5,Ca4Al2H22CO20
4.3173,Al-C-Ca-H-O,5,Ca4Al2H22CO20
0.0041999999999999,Al-C-Ca-H-O,5,Ca4Al2H22CO20
0.0,Al-Ca-O,3,Ca4Al3O10
4.0168,Al-Ca-Cr-H-O-Si,6,Ca4Al5CrSi6(HO13)2
2.714,Al-Ca-Fe-H-O-Si,6,Ca4Al5FeSi6(HO13)2
2.8012,Al-Ca-Cr-O,4,Ca4Al6CrO16
3.9061,Al-Ca-Mo-O,4,Ca4Al6MoO16
3.6188,Al-Ca-O,3,Ca4Al6O13
3.9418,Al-Ca-O,3,Ca4Al6O13
3.7247,Al-Ca-O-S,4,Ca4Al6SO12
4.4998000000000005,Al-Ca-O-S,4,Ca4Al6SO16
3.848,Al-Ca-O-S,4,Ca4Al6SO16
4.6682,Al-Ca-O-S,4,Ca4Al6SO16
3.1465,Al-Ca-O-Te,4,Ca4Al6TeO12
3.9756,Al-Ca-O-W,4,Ca4Al6WO16
0.2271999999999998,Al-Ca-O-W,4,Ca4Al6WO16
2.4101000000000004,Al-Ca-O-W,4,Ca4Al6WO16
1.2134999999999998,As-Ca-O,3,Ca4As2O
0.7892999999999999,Be-Ca-F-O-P,5,Ca4Be4P4O17F3
0.8131000000000004,Bi-Ca-O,3,Ca4Bi2O
1.7027999999999994,Bi-Ca-O,3,Ca4Bi6O13
1.1427999999999998,Bi-Ca-O,3,Ca4Bi6O13
0.0,Au-Ca-Cd,3,Ca4Cd3Au
0.0,Au-Ca-Cd,3,Ca4Cd3Au5
5.2239,Ca-Cl-O,3,Ca4Cl6O
3.1496000000000004,Ca-Co-Ni-O-Si,5,Ca4Co3Si8NiO24
0.0,Ca-Co-N,3,Ca4CoN4
3.8886,Ca-Co-Ni-O-Si,5,Ca4CoSi8(NiO8)3
1.7498000000000005,Ca-Cr-Fe-O,4,Ca4CrFe3O10
0.0,Ca-Cr-N,3,Ca4CrN4
4.4289,B-Ca-Er-O,4,Ca4ErB3O10
0.0,As-Ca-Fe-Pt,4,Ca4Fe3As8Pt
0.1614000000000004,Ca-Fe-O,3,Ca4Fe9O17
0.0,Ca-Fe-Ga-O,4,Ca4Ga3FeO10
0.0,Ca-Ga-Si,3,Ca4GaSi3
0.0,Ca-Ga-Sn,3,Ca4GaSn3
3.0999,B-Ca-Gd-O,4,Ca4GdB3O10
0.0,Au-Ca-Ge,3,Ca4Ge3Au5
1.2158000000000002,Ca-Hf-N,3,Ca4HfN4
0.0,Ca-In-N,3,Ca4In2N
0.0,Ca-Ir,2,Ca4Ir
0.0,Ca-Ir-N,3,Ca4IrN4
0.0,Ca-Ir-O,3,Ca4IrO6
3.0637,Ca-La-O-Zr,4,Ca4La2Zr4O15
0.0,Ca-La-Mn-Ni-O,5,Ca4La4Mn7NiO24
4.3032,B-Ca-La-O,4,Ca4LaB3O10
4.1563,Ca-Fe-Mg-O-Si,5,Ca4Mg3Fe(SiO3)8
3.1113,Ca-H-Mg,3,Ca4Mg3H14
4.7374,Ca-Mg-Ni-O-Si,5,Ca4Mg3Si8NiO24
0.0,Ca-Fe-Mg,3,Ca4Mg4Fe3
1.4456000000000002,Ca-Fe-H-Mg,4,Ca4Mg4Fe3H22
0.8282,Ca-F-Mg-O-P,5,Ca4Mg4P4O17F3
0.7126999999999999,As-Ca-Mg-O-V,5,Ca4Mg4V3AsO20
4.308999999999999,Al-Ca-Mg-O-Si,5,Ca4MgAl2Si3O14
0.0,B-C-Ca-Mg-O,5,Ca4MgB4(CO9)2
4.2989,B-C-Ca-H-Mg-O,6,Ca4MgB4H6(CO9)2
0.0253999999999999,As-Ca-Co-Mg-O,5,Ca4MgCo(AsO5)4
4.7986,Ca-Mg-Ni-O-Si,5,Ca4MgSi8(NiO8)3
0.0,Ca-Mg-Sn,3,Ca4MgSn3
3.5302,As-Ca-H-Mg-O-Zn,6,Ca4MgZnAs4(H2O5)4
0.0,Al-Ca-Mn-O,4,Ca4Mn2Al2O11
0.0,Ca-Mn-O,3,Ca4Mn2O7
0.0,Al-Ca-Mn-O,4,Ca4Mn3AlO10
0.0,Al-Ca-Mn-O,4,Ca4Mn3AlO11
0.0,Ca-Cr-Mn-O,4,Ca4Mn3CrO10
0.0,Ca-Cr-Mn-O,4,Ca4Mn3CrO11
0.0,Ca-Cr-Mn-O,4,Ca4Mn3CrO12
0.2408000000000001,Ca-Mn-O-Sb,4,Ca4Mn3SbO12
0.7241,Ca-Mn-O-Sb,4,Ca4Mn3SbO12
0.0,Ca-Mn-O,3,Ca4Mn4O11
1.4301,Ca-Fe-Mn-O,4,Ca4MnFe3O10
0.0,Ca-Mn-N,3,Ca4MnN4
0.0,Ca-Nb-O,3,Ca4Nb6O21
4.3686,B-Ca-Nd-O,4,Ca4NdB3O10
0.0,Ca-Ni,2,Ca4Ni
0.0,Ca-H-Ni,3,Ca4Ni20H
0.0,C-Ca-Ni,3,Ca4Ni3C5
0.0,Ca-Ge-Ni,3,Ca4Ni4Ge3
0.0,Ca-N-Os,3,Ca4OsN4
1.2714000000000003,Ca-O-P,3,Ca4P2O
0.8324000000000003,Ca-N-Pb,3,Ca4PbN4
0.0,Ca-Pd,2,Ca4Pd
1.8227,Ca-O-Pd,3,Ca4PdO6
0.0,Ca-Pt,2,Ca4Pt
0.0,Ca-N-Pt,3,Ca4PtN4
2.3917,Ca-O-Pt,3,Ca4PtO6
0.0,Ca-N-Re,3,Ca4ReN4
0.0,Ca-Rh,2,Ca4Rh
0.0,Ca-N-Rh,3,Ca4RhN4
0.0,Ca-N-Ru,3,Ca4RuN4
1.7818000000000005,Ca-N-S,3,Ca4SN4
0.0,Ba-Mg-Mo-O,4,BaMg(MoO2)4
0.0,Ba-Mg-Ni-O,4,BaMg(NiO2)4
0.0,Ba-Mg-O-Sb,4,BaMg(SbO2)4
0.0,Ba-Mg-O-Sb,4,BaMg(SbO3)2
2.7242,Ba-Mg-O-Sb,4,BaMg(SbO3)2
0.0,Ba-Mg-O-Sn,4,BaMg(SnO2)4
0.0,Ba-Mg-O-W,4,BaMg(WO2)4
0.0,Al-Ba-Mg,3,BaMg14Al
0.0,Al-Ba-Mg-O,4,BaMg14AlO16
0.0,B-Ba-Mg,3,BaMg14B
0.0,Ba-Bi-Mg,3,BaMg14Bi
0.0,Ba-Bi-Mg-O,4,BaMg14BiO16
0.0,Ba-C-Mg,3,BaMg14C
0.0,Ba-C-Mg-O,4,BaMg14CO16
0.0,Ba-Cd-Mg,3,BaMg14Cd
0.6337000000000002,Ba-Cd-Mg-O,4,BaMg14CdO16
0.6707999999999998,Ba-Cd-Mg-O,4,BaMg14CdO16
0.0,Ba-Co-Mg,3,BaMg14Co
0.7773999999999992,Ba-Co-Mg-O,4,BaMg14CoO16
0.0,Ba-Co-Mg-O,4,BaMg14CoO16
0.0,Ba-Cr-Mg,3,BaMg14Cr
0.1737000000000002,Ba-Cr-Mg-O,4,BaMg14CrO16
0.0,Ba-Cr-Mg-O,4,BaMg14CrO16
0.0,Ba-Cu-Mg,3,BaMg14Cu
0.0,Ba-Cu-Mg-O,4,BaMg14CuO16
0.0,Ba-Fe-Mg,3,BaMg14Fe
0.8242000000000003,Ba-Fe-Mg-O,4,BaMg14FeO16
0.9022999999999994,Ba-Fe-Mg-O,4,BaMg14FeO16
0.0,Ba-Ga-Mg,3,BaMg14Ga
0.0,Ba-Mg-Mn,3,BaMg14Mn
0.7568000000000001,Ba-Mg-Mn-O,4,BaMg14MnO16
0.5995999999999997,Ba-Mg-Mn-O,4,BaMg14MnO16
0.0,Ba-Mg-Mo,3,BaMg14Mo
0.0,Ba-Mg-Nb,3,BaMg14Nb
0.0,Ba-Mg-Nb-O,4,BaMg14NbO16
0.0,Ba-Mg-Ni,3,BaMg14Ni
0.6776999999999997,Ba-Mg-Ni-O,4,BaMg14NiO16
0.8104000000000005,Ba-Mg-Ni-O,4,BaMg14NiO16
0.0,Ba-Mg-Sb,3,BaMg14Sb
0.0,Ba-Mg-Si,3,BaMg14Si
0.4681000000000006,Ba-Mg-O-Si,4,BaMg14SiO16
0.0,Ba-Mg-O-Si,4,BaMg14SiO16
0.0,Ba-Mg-Sn,3,BaMg14Sn
0.2113000000000005,Ba-Mg-O-Sn,4,BaMg14SnO16
0.0,Ba-Mg-O-Sn,4,BaMg14SnO16
0.0,Ba-Mg-Ti,3,BaMg14Ti
0.0,Ba-Mg-O-Ti,4,BaMg14TiO16
0.0,Ba-Mg-V,3,BaMg14V
0.8090999999999999,Ba-Mg-O-V,4,BaMg14VO16
0.0,Ba-Mg-O-V,4,BaMg14VO16
0.0,Ba-Mg-W,3,BaMg14W
0.0,Ba-Mg-Zn,3,BaMg14Zn
0.7457000000000003,Ba-Mg-O-Zn,4,BaMg14ZnO16
0.9413,Ba-Mg-O-Zn,4,BaMg14ZnO16
0.0,Ba-Mg-Zr,3,BaMg14Zr
0.0,Ba-Mg,2,BaMg15
0.0,Ba-Mg,2,BaMg2
1.4470999999999998,Ba-Fe-H-Mg,4,BaMg2FeH8
2.1357,Ba-H-Mg-Os,4,BaMg2H8Os
1.9107,Ba-H-Mg-Ru,4,BaMg2H8Ru
1.1022000000000003,Ba-Mg-N,3,BaMg2N2
0.9633000000000004,Ba-Mg-N,3,BaMg2N2
0.0,Ba-Mg,2,BaMg3
0.7934999999999999,Ba-Mg-O,3,BaMg3O4
0.0,Ba-Ge-Mg,3,BaMg4Ge3
0.0,Ba-Mg-Si,3,BaMg4Si3
0.0,Al-Ba-Mg,3,BaMg6Al
0.0,Al-Ba-Mg-O,4,BaMg6AlO8
0.0,B-Ba-Mg,3,BaMg6B
0.0,Ba-Bi-Mg,3,BaMg6Bi
0.0,Ba-Bi-Mg-O,4,BaMg6BiO8
0.0,Ba-C-Mg,3,BaMg6C
0.0,Ba-C-Mg-O,4,BaMg6CO8
0.0,Ba-Cd-Mg,3,BaMg6Cd
0.1718000000000001,Ba-Cd-Mg-O,4,BaMg6CdO8
0.1489000000000002,Ba-Cd-Mg-O,4,BaMg6CdO8
0.0,Ba-Co-Mg,3,BaMg6Co
0.5120000000000005,Ba-Co-Mg-O,4,BaMg6CoO8
0.0,Ba-Co-Mg-O,4,BaMg6CoO8
0.0,Ba-Cr-Mg,3,BaMg6Cr
0.0,Ba-Cr-Mg-O,4,BaMg6CrO8
0.0,Ba-Cu-Mg,3,BaMg6Cu
0.0,Ba-Cu-Mg-O,4,BaMg6CuO8
0.0,Ba-Fe-Mg,3,BaMg6Fe
0.3263999999999996,Ba-Fe-Mg-O,4,BaMg6FeO8
0.5565999999999995,Ba-Fe-Mg-O,4,BaMg6FeO8
0.0,Ba-Ga-Mg,3,BaMg6Ga
0.0,Ba-Mg-Mn,3,BaMg6Mn
0.0,Ba-Mg-Mn-O,4,BaMg6MnO8
0.4737999999999998,Ba-Mg-Mn-O,4,BaMg6MnO8
0.0,Ba-Mg-Mo,3,BaMg6Mo
0.0,Ba-Mg-Nb,3,BaMg6Nb
0.0,Ba-Mg-Nb-O,4,BaMg6NbO8
0.0,Ba-Mg-Ni,3,BaMg6Ni
0.3185000000000002,Ba-Mg-Ni-O,4,BaMg6NiO8
0.3814999999999999,Ba-Mg-Ni-O,4,BaMg6NiO8
0.0,Ba-Mg-Sb,3,BaMg6Sb
0.0,Ba-Mg-Si,3,BaMg6Si
0.2602000000000002,Ba-Mg-O-Si,4,BaMg6SiO8
0.0,Ba-Mg-O-Si,4,BaMg6SiO8
0.0,Ba-Mg-Sn,3,BaMg6Sn
0.0,Ba-Mg-O-Sn,4,BaMg6SnO8