eg,chemsys,nelements,formula
0.0,Cr-S,2,Cr5S6
0.0,Cr-S,2,Cr5S8
0.0,Cr-O-Sb,3,Cr5Sb3O16
0.0,Cr-Se,2,Cr5Se8
0.0,Cr-Si,2,Cr5Si3
0.0,B-Cr-Si,3,Cr5Si3B
0.0,C-Cr-Si,3,Cr5Si3C
0.0,B-Cr-Si,3,Cr5SiB2
0.0,Cr-Te,2,Cr5Te8
0.0,B-C-Cr,3,Cr6BC3
0.0,C-Cr-N,3,Cr6C3N
0.0,Cd-Cr-Cu-O,4,Cr6Cd(CuO6)2
0.0,Co-Cr-Cu-Se,4,Cr6Co2CuSe12
0.0,Cr-O,2,Cr6O11
0.0,Cr-O-Pb,3,Cr6PbO18
0.0,Cr-Ni-Si,3,Cr6Si7Ni16
0.7454000000000005,Cr-O-P,3,Cr7(PO4)6
0.0,C-Cr,2,Cr7C3
0.0,Cr-Se,2,Cr7Se8
0.0,Cr-Te,2,Cr7Te8
0.0,Co-Cr-Ni-S,4,Cr8Co3NiS16
0.0,Co-Cr,2,Cr8Co7
0.0,Cr-Cu-Ni-S,4,Cr8Cu3NiS16
0.0,Cr-Cu-Fe-Ni-S,5,Cr8Fe2CuNiS16
0.0,Cr-Cu-Fe-S,4,Cr8Fe3CuS16
0.0,Cr-Fe-N,3,Cr8Fe3N8
0.0,Cr-Fe-Ni-S,4,Cr8Fe3NiS16
0.0,Co-Cr-Cu-Fe-S,5,Cr8FeCo2CuS16
0.8535,Cr-O,2,Cr8O21
0.0,Cr-O,2,Cr8O21
1.3738,Cr-O,2,Cr8O21
0.0,B-Cr-Fe,3,Cr9FeB6
0.4606999999999996,Cr-O,2,Cr9O13
0.0,Ag-Cr-P-S,4,CrAg(PS3)2
0.6964000000000001,Ag-Cr-P-Se,4,CrAg(PSe3)2
1.9491,Ag-Cr-O-S,4,CrAg(SO4)2
0.0,Ag-Cr,2,CrAg3
1.3861,Ag-Cl-Cr-O,4,CrAg3ClO4
0.2042,Ag-Cr-F,3,CrAg3F6
1.1658000000000004,Ag-Cr-O,3,CrAgO2
1.6634000000000009,Ag-Cr-O,3,CrAgO2
0.0,Ag-Cr-O,3,CrAgO4
1.336,Ag-Cr-O,3,CrAgO4
0.0,Ag-Cr-S,3,CrAgS2
0.9816000000000004,Ag-Cr-S,3,CrAgS2
1.0377,Ag-Cr-S,3,CrAgS2
0.9672999999999998,Ag-Cr-S,3,CrAgS2
0.9670000000000004,Ag-Cr-S,3,CrAgS2
0.7286999999999999,Ag-Cr-S,3,CrAgS2
0.4239000000000001,Ag-Cr-Se,3,CrAgSe2
0.0,Ag-Cr-Se,3,CrAgSe2
0.0,Ag-Cr-S-Se-Sn,5,CrAgSn(SeS)2
0.0,Ag-Cr-S-Sn,4,CrAgSnS4
0.0041000000000002,Ag-Cr-Se-Sn,4,CrAgSnSe4
0.0,Ag-Cr-Te,3,CrAgTe2
0.0,As-Cr,2,CrAs
0.0,As-Cr,2,CrAs2
2.5028,As-Cr-O,3,CrAsO4
1.8132,As-Cr-O,3,CrAsO4
0.6428999999999999,As-Cr-O,3,CrAsO5
0.0,As-Cr-Pd,3,CrAsPd
0.0,As-Cr-Rh,3,CrAsRh
0.0,As-Cr-Ru,3,CrAsRu
0.0,Au-Cr,2,CrAu
0.0,Au-Cr,2,CrAu4
1.2660000000000005,Au-Cr-O,3,CrAuO2
0.0,Au-Cr-O,3,CrAuO2
0.5956000000000001,Au-Cr-S,3,CrAuS2
0.0,B-Cr,2,CrB
0.0,B-Cr,2,CrB2
0.0,B-Cr-Mo,3,CrB2Mo
0.0,B-Cr-Ru,3,CrB2Ru
0.0,B-Cr-W,3,CrB2W
0.0,B-Cr,2,CrB4
0.1306000000000002,B-Cr,2,CrB4
0.0,B-Cr-Mo,3,CrB4Mo
0.6791999999999998,B-Cr-N,3,CrBN2
0.0,B-Cr-O,3,CrBO3
1.9943,B-Cr-O-Pb,4,CrBPbO4
0.0,B-Cr-W,3,CrBW
0.0,Bi-Cr,2,CrBi
0.0,Bi-Cr-N,3,CrBi2N3
0.0,Bi-Cr-N,3,CrBiN2
0.0298,Bi-Cr-O,3,CrBiO3
1.2936999999999994,Bi-Cr-O,3,CrBiO3
1.5415,Bi-Cr-O,3,CrBiO3
1.5411,Bi-Cr-O,3,CrBiO3
0.5143999999999997,Bi-Cr-O,3,CrBiO4
0.5047000000000001,Bi-Cr-O,3,CrBiO4
0.8826999999999998,Bi-Cr-O,3,CrBiO4
0.0,Bi-Cr-O,3,CrBiO4
0.0,Bi-Cr-O,3,CrBiO5
0.0,Bi-Cr-O-Te,4,CrBiTeO6
0.0,Bi-Cr-O-W,4,CrBiWO6
0.0,Br-Cr,2,CrBr2
1.6129000000000002,Br-Cr-O,3,CrBrO
0.0,C-Cr,2,CrC
0.0,C-Cr-N,3,CrCN2
0.0,Cd-Cr-Te,3,CrCd3Te4
0.0,Cd-Cr-Cu-Se,4,CrCdCu3Se4
0.0,Cd-Cr-F,3,CrCdF6
0.8689999999999998,Cd-Cr-In-S,4,CrCdInS4
2.4417,Cd-Cr-O,3,CrCdO4
2.2913,Cd-Cr-O,3,CrCdO4
0.0,Cd-Cr-Te,3,CrCdTe2
0.0,Cl-Cr,2,CrCl
0.7128999999999999,Cl-Cr,2,CrCl2
0.1467999999999998,Cl-Cr,2,CrCl3
1.5182,Cl-Cr,2,CrCl3
0.3688000000000002,Cl-Cr-O,3,CrClO
0.0,Co-Cr,2,CrCo
0.0,Co-Cr-O-P,4,CrCo(PO4)2
0.0,As-Co-Cr,3,CrCo2As
0.0,Bi-Co-Cr,3,CrCo2Bi
0.0,Co-Cr-Ge,3,CrCo2Ge
0.0,Co-Cr-N,3,CrCo2N3
0.0,Co-Cr-Sb,3,CrCo2Sb
0.0,Co-Cr-Si,3,CrCo2Si
0.0,Co-Cr,2,CrCo3
0.2255000000000002,Co-Cr-O-P,4,CrCo3(PO4)4
0.7062999999999999,Co-Cr-O,3,CrCo3O8
0.4764,Co-Cr-O,3,CrCo3O8
0.4768000000000001,Co-Cr-O,3,CrCo3O8
0.9511000000000004,Co-Cr-O-Sb,4,CrCo4SbO8
0.4535999999999999,Co-Cr-O,3,CrCo5O12
0.0,As-Co-Cr,3,CrCoAs
0.0,B-Co-Cr,3,CrCoB
0.0,Br-Co-Cr,3,CrCoBr3
0.0,Cl-Co-Cr,3,CrCoCl3
0.0,Co-Cr-Ge,3,CrCoGe
1.8356,C-Co-Cr-H-N,5,CrCoH18(CN2)6
0.0,Co-Cr-N,3,CrCoN2
0.8890000000000002,Co-Cr-F-N,4,CrCoNF6
0.506,Co-Cr-O,3,CrCoO4
1.5962,Co-Cr-O,3,CrCoO4
0.0,Co-Cr-P,3,CrCoP
0.0,Co-Cr-Pt,3,CrCoPt2
0.0,Co-Cr-Si,3,CrCoSi
0.0,Co-Cr-Si,3,CrCoSi2
0.0,Co-Cr-Te,3,CrCoTe
0.0,Cr-Cu-O-P,4,CrCu(PO4)2
0.6399999999999997,Cr-Cu-P-Se,4,CrCu(PSe3)2
0.4312999999999993,Cr-Cu-O-W,4,CrCu(WO4)2
0.0,Cr-Cu-N,3,CrCu2N3
0.0,Cr-Cu-Si,3,CrCu2Si
0.0,Cr-Cu-O-P,4,CrCu3(PO4)4
0.0,Cr-Cu-Hg-Se,4,CrCu3HgSe4
0.0,Cr-Cu-Pb-Se,4,CrCu3PbSe4
0.0,Cr-Cu-Ni-Sn,4,CrCu4NiSn2
0.0,B-Cr-Cu,3,CrCuB
1.5292999999999997,Cr-Cu-O,3,CrCuO2
1.5391000000000004,Cr-Cu-O,3,CrCuO2
0.0,Cr-Cu-O,3,CrCuO3
0.1601999999999999,Cr-Cu-O,3,CrCuO4
0.0,Cr-Cu-Rh-Se,4,CrCuRhSe4
0.0,Cr-Cu-S,3,CrCuS2
0.2196999999999995,Cr-Cu-S,3,CrCuS2
0.0,Cr-Cu-S,3,CrCuS4
0.0809999999999995,Cr-Cu-Se,3,CrCuSe2
0.0,Cr-Cu-Se,3,CrCuSe2
0.0,Cr-Cu-S-Sn,4,CrCuSnS4
0.0213,Cr-Cu-Se-Sn,4,CrCuSnSe4
0.0063999999999997,Cr-F,2,CrF2
3.7828,Cr-F,2,CrF3
3.0453,Cr-F,2,CrF3
0.3321999999999998,Cr-F,2,CrF4
1.3156,Cr-F,2,CrF4
1.0142,Cr-F,2,CrF4
0.0,Cr-F,2,CrF5
1.1667999999999998,Cr-F,2,CrF5
0.7746999999999997,Cr-F,2,CrF5
1.2205999999999997,Cr-F,2,CrF5
2.0863000000000005,Cr-F,2,CrF6
0.0,Cr-Fe,2,CrFe
0.0,Bi-Cr-Fe-O,4,CrFe(BiO3)2
1.8281,Cr-Fe-O-P,4,CrFe(PO4)2
2.1953000000000005,Cr-Fe-O-P,4,CrFe(PO4)2
0.0,Cr-Fe-Si,3,CrFe11Si4
1.6569,Cr-Fe-O-P,4,CrFe2(PO4)3
0.0,Cr-Fe-N,3,CrFe2N3
0.4787000000000003,Cr-Fe-O,3,CrFe2O5
0.0,Cr-Fe-O,3,CrFe2O5
0.0,Cr-Fe-Sb,3,CrFe2Sb
0.0,Cr-Fe-Si,3,CrFe2Si
0.0,Cr-Fe-Sn,3,CrFe2Sn
0.0,Cr-Fe,2,CrFe3
0.0,As-Cr-Fe,3,CrFe3As2
0.0,As-Cr-Fe,3,CrFe3As4
0.0,B-Cr-Fe,3,CrFe3B2
0.0,Co-Cr-Fe-O-P,5,CrFe3Co2(PO4)6
0.0,Cr-Cu-Fe-O-P,5,CrFe3Cu2(PO4)6
0.0,Cr-Fe-N,3,CrFe3N
0.0,Cr-Fe-Ni-O-P,5,CrFe3Ni2(PO4)6
2.2861,Cr-Fe-O-P-Sb,5,CrFe3Sb2(PO4)6
0.0,Cr-Fe-Sb,3,CrFe3Sb4
0.0377999999999998,Cr-Fe-O-P-Sn,5,CrFe3Sn2(PO4)6
0.0,Cr-Fe,2,CrFe4
1.4095,Cr-Fe-O-P,4,CrFe5(PO4)6
0.0,As-Cr-Fe,3,CrFeAs
0.0,As-Cr-Fe,3,CrFeAs2
0.0,As-Cr-Fe,3,CrFeAs4
0.0,B-Cr-Fe,3,CrFeB2
0.0,Co-Cr-Fe-Ni,4,CrFeCoNi
1.0128000000000004,Co-Cr-Fe-O,4,CrFeCoO4
0.0,Co-Cr-Fe-Si,4,CrFeCoSi
0.0,Cr-Fe-Ge,3,CrFeGe2
0.0,Cr-Fe-N,3,CrFeN2
0.0,Cr-Fe-O,3,CrFeO3
0.2866999999999999,Cr-Fe-O,3,CrFeO4
0.2012,Cr-Fe-O,3,CrFeO4
0.0,Cr-Fe-P,3,CrFeP
0.0,Cr-Fe-P,3,CrFeP2
0.0,Cr-Fe-Rh-S,4,CrFeRhS4
0.0,Cr-Fe-S,3,CrFeS2
0.0,Cr-Fe-S,3,CrFeS4
0.0,Cr-Fe-Sb,3,CrFeSb4
0.0,Cr-Fe-Si,3,CrFeSi2
0.0,Cr-Fe-Te,3,CrFeTe
1.5522,Cr-Fe-O-Te,4,CrFeTeO6
0.0,Cr-Ga,2,CrGa
0.0,Cr-Ga-N,3,CrGa2N3
0.0,Co-Cr-Ga-Se,4,CrGa3(CoSe4)2
0.0,Cr-Fe-Ga-Se,4,CrGa3(FeSe4)2
0.0,Cr-Ga-Ni-S,4,CrGa3(NiS4)2
0.0,Cr-Ga-P,3,CrGa3P4
0.0,Cr-Ga,2,CrGa4
0.0,Cr-Ga-P,3,CrGa7P8
0.0,Co-Cr-Ga,3,CrGaCo2
0.0,Cr-Fe-Ga,3,CrGaFe2
0.0,Cr-Fe-Ga-Se,4,CrGaFeSe4
0.0,Cr-Ga-N,3,CrGaN2
0.0,Cr-Ga-O,3,CrGaO4
0.0,Cr-Ga-P,3,CrGaP2
0.0,Cr-Ga-Rh,3,CrGaRh2
0.0,Cr-Ga-Ru,3,CrGaRu2
0.0,Cr-Ga-Se,3,CrGaSe3
0.0,Cr-Ga-Te,3,CrGaTe
0.0,Cr-Ge,2,CrGe
0.0,Cr-Ge-N,3,CrGeN2
0.0,Cr-Ge-O,3,CrGeO3
0.0,Cr-Ge-Rh,3,CrGeRh
0.0,Cr-Ge-Ru,3,CrGeRu2
1.7907000000000002,Cr-Ge-O-Sb,4,CrGeSbO6
0.0,Cr-Ge-Te,3,CrGeTe3
0.0,Cr-H,2,CrH
1.7608,Cr-H-N-O-S,5,CrH10S2(NO2)4
0.0,Cr-H-O-S,4,CrH10SO9
0.2085999999999999,C-Cr-F-H,4,CrH12(CF)8
3.1474,C-Cr-H-N-O,5,CrH12C2(N3O2)2
0.2629000000000001,C-Cr-H-N-O,5,CrH12C6(NO4)3
2.0106,C-Cr-H-N-O-S,6,CrH12C8S2(NO)2
2.3773,Cl-Cr-H-I-N,5,CrH12I(N2Cl)2
4.1373,Cr-F-H-N-O,5,CrH12N3(OF2)3
3.1805000000000003,Cr-F-H-N-O,5,CrH12N3(OF2)3
1.8408,Cr-H-N-O,4,CrH12N3O8
2.5521000000000003,Cr-H-N-O-Pd,5,CrH12Pd(NO)4
2.0500000000000003,Cr-H-N-O,4,CrH14N3O8
3.1829,Cl-Cr-H-N-O,5,CrH14N4Cl3O
2.3579,Cl-Cr-H-N-O,5,CrH15N6Cl2O
0.0,Cr-H,2,CrH2
0.0,Cr-H,2,CrH3
0.0,C-Cr-H-N-O,5,CrH4C4NO10
2.6506,Cr-H-O,3,CrH5O4
0.1732,Cr-H-O-S,4,CrH6SO7
2.6809,Cr-H-N-O,4,CrH8(NO2)2
1.1525,C-Cr-H-N-S,5,CrH8C4(S2N3)2
3.2492,C-Cr-H-N-O,5,CrH8C4NO10
0.0,Br-Cr-H-N,4,CrH9(BrN)3
0.4028,C-Cr-H-N,4,CrH9(CN2)3
2.6702000000000004,Cr-H-O,3,CrHO2
0.9946000000000002,Cr-H-O,3,CrHO2
0.9781000000000004,Cr-H-O,3,CrHO2
2.6009999999999995,Cr-H-O,3,CrHO2
2.0918,Cr-Hg-O-Pb,4,CrHg(PbO3)2
0.0,Cr-Hg,2,CrHg3
1.0604,Cr-F-Hg,3,CrHg3F6
0.1584999999999998,Cr-F-Hg,3,CrHg3F6
0.8593999999999999,Cr-Hg-O,3,CrHg5O6
0.0,Cr-F-Hg,3,CrHgF6
1.931,Cr-Hg-O,3,CrHgO4
1.3635,Cr-Hg-O,3,CrHgO4
0.0,Cr-I,2,CrI2
0.2568000000000001,Cr-I,2,CrI2
0.0,Cr-In,2,CrIn3
0.0,Co-Cr-In,3,CrInCo2
0.0,Co-Cr-In-S,4,CrInCoS4
0.0,Cr-Cu-In,3,CrInCu2
0.0,Cr-In-Ni,3,CrInNi2
0.0,Cr-In-Ni-S,4,CrInNiS4
1.1706000000000003,Cr-In-O,3,CrInO3
0.0,Cr-Ir,2,CrIr
0.0,Cr-Ir,2,CrIr3
0.0,Cr-Ir-O,3,CrIrO4
0.0,Cr-Ir-O,3,CrIrO6
0.0,Cr-Ir-Ru,3,CrIrRu
0.0,Cr-Mo,2,CrMo
0.0,Cr-Mo-N,3,CrMo2N3
0.0,Cr-Mo,2,CrMo3
0.0,As-Cr-Mo,3,CrMoAs2
0.7764,Cr-F-Mo,3,CrMoF6
0.0,Cr-F-Mo,3,CrMoF6
0.0,Cr-Mo-O,3,CrMoO3
0.0,Cr-Mo-O,3,CrMoO4
0.0,Cr-N,2,CrN
0.0,Cr-N,2,CrN2
0.1566,Cr-N,2,CrN2
0.0053,Cr-N,2,CrN2
0.1289,Cr-N,2,CrN2
0.2328000000000001,Cr-N,2,CrN2
0.0637,Cr-N,2,CrN2
0.066,Cr-N,2,CrN2
0.0330000000000001,Cr-N,2,CrN2
0.0991999999999999,Cr-N,2,CrN2
0.0325,Cr-N,2,CrN2
0.1170999999999999,Cr-N,2,CrN2
0.1268,Cr-N,2,CrN2
0.0,Cr-N-O,3,CrN3O8
0.0,Cl-Cr-F-N-O,5,CrN4Cl(O2F)2
0.6312,Cl-Cr-N-O,4,CrN4Cl2O3
0.0,Cr-F-N,3,CrNF4
0.0,Cr-Ni,2,CrNi
0.0,Cr-Ni-O-P,4,CrNi(PO4)2
0.0,Cr-Ni,2,CrNi2
2.7366,B-Cr-Ni-O,4,CrNi2BO5
0.0,Cr-Hg-Ni,3,CrNi2Hg
0.0,Cr-N-Ni,3,CrNi2N3
0.0,Cr-Ni,2,CrNi3
0.0,Cr-Ni-O-P,4,CrNi3(PO4)4
0.0,Cr-Ni-Sb,3,CrNi3Sb4
0.0,Cr-Ni-O-P,4,CrNi5(PO4)6
1.6573999999999998,Ag-Cr-F-Ni,4,CrNiAg2F7
0.0,As-Cr-Ni,3,CrNiAs
0.0,Cr-F-Ni,3,CrNiF6
0.0,Cr-N-Ni,3,CrNiN2
0.0,Cr-Ni-O,3,CrNiO4
0.0,Cr-Ni-P,3,CrNiP
0.0,Cr-Ni-O-P,4,CrNiPO5
0.0,Cr-Ni-Sb,3,CrNiSb
0.0,Cr-Ni-Sb,3,CrNiSb2
0.4958,Cr-O,2,CrO
0.0,Cr-O,2,CrO
1.5811000000000002,Cr-O,2,CrO
0.3408999999999995,Cr-O,2,CrO
0.0,Cr-O,2,CrO2
0.2235,Cr-O,2,CrO2
0.2742999999999997,Cr-O,2,CrO2
0.9693,Cr-O,2,CrO2
0.0146999999999999,Cr-O,2,CrO2
0.5338,Cr-O,2,CrO2
1.0567,Cr-O,2,CrO2
1.0276,Cr-O,2,CrO2
0.3017999999999999,Cr-O,2,CrO2
0.3688999999999999,Cr-O,2,CrO2
0.0,Cr-O,2,CrO3
1.3264,Cr-O,2,CrO3
2.2885,Cr-O,2,CrO3
2.0419,Cr-O,2,CrO3
1.4434,Cr-O,2,CrO3
1.8552,Cr-O,2,CrO3
1.2356,Cr-O,2,CrO3
2.0295,Cr-O,2,CrO3
1.3593000000000002,Cr-O,2,CrO3
2.1361000000000003,Cr-F-O,3,CrOF
1.9206,Cr-F-O,3,CrOF
1.2153000000000005,Cr-F-O,3,CrOF
1.2153,Cr-F-O,3,CrOF
2.1933,Cr-F-O,3,CrOF3
0.0,Cr-P,2,CrP
2.8008,Cr-H-O-P,4,CrP(HO)5
0.0,Cr-P,2,CrP2
0.7529,Cr-O-P,3,CrP2O7
0.2259,Cr-O-P,3,CrP2O7
0.0,Cr-O-P,3,CrP2O7
0.1699999999999999,Cr-O-P,3,CrP2O7
0.5948999999999999,Cr-O-P,3,CrP2O7
0.0,Cr-P-S,3,CrP2S7
0.0,Cr-P-W,3,CrP2W
0.0,Cr-P,2,CrP4
1.7488,Cr-O-P-W,4,CrP6(WO8)3
0.0,Cr-P-W,3,CrP8W3
0.9222,Cr-H-O-P,4,CrPHO5
1.5961,Cr-O-P,3,CrPO4
2.2583,Cr-O-P,3,CrPO4
2.2012000000000005,Cr-O-P,3,CrPO4
1.803,Cr-O-P,3,CrPO4
1.3568000000000002,Cr-O-P,3,CrPO4
1.2009999999999998,Cr-O-P,3,CrPO4
0.7435999999999998,Cr-O-P,3,CrPO4
1.7833,Cr-O-P,3,CrPO4
1.3256,Cr-O-P,3,CrPO4
1.1304000000000003,Cr-O-P,3,CrPO4
1.8272000000000004,Cr-O-P,3,CrPO4
0.0472,Cr-F-O-P,4,CrPO4F
0.5163,Cr-O-P,3,CrPO5
1.1028,Cr-O-P,3,CrPO5
1.6195,Cr-O-P,3,CrPO5
1.5145999999999995,Cr-O-P,3,CrPO5
1.3829000000000002,Cr-O-P,3,CrPO5
1.0526,Cr-O-P,3,CrPO5
0.0,Cr-O-P,3,CrPO5
0.0,Cr-P-Pd,3,CrPPd
0.0,Cr-P-S,3,CrPS4
0.0,Cr-P-Se,3,CrPSe3
0.0,Cr-Pb,2,CrPb2
1.5518000000000003,Cr-O-Pb,3,CrPb2O5
0.0,Cl-Cr-O-Pb,4,CrPb6(Cl3O4)2
0.0,Cr-N-Pb,3,CrPbN2
0.0,Cr-O-Pb,3,CrPbO3
2.1744000000000003,Cr-O-Pb,3,CrPbO4
2.2021,Cr-O-Pb,3,CrPbO4
0.0,Cr-Pd,2,CrPd
0.0,Cr-Pd,2,CrPd3
0.0,Cr-O-Pd,3,CrPdO2
0.0,Cr-Pt,2,CrPt
0.0,Cr-Pt,2,CrPt3
0.0,Cr-Pt,2,CrPt4
0.0,Cr-O-Pt,3,CrPtO2
0.0,B-Cr-Re,3,CrRe13B6
0.0,Cr-Re,2,CrRe3
0.0,B-Cr-Re,3,CrRe3B4
0.0,B-Cr-Re,3,CrRe5B2
0.0,Cr-O-Re,3,CrReO4
0.0,Cr-Rh,2,CrRh
0.0,Cr-Rh,2,CrRh3
0.0,Cr-O-Rh,3,CrRhO3
0.0,Cr-Ru,2,CrRu
0.0,Cr-S,2,CrS
0.0,Cr-S,2,CrS2
0.0,Cr-N-O-S,4,CrS2NO8
0.0,Br-Cr-S,3,CrSBr
2.4446000000000003,Cr-O-S,3,CrSO4
1.5224000000000006,Cr-O-S,3,CrSO4
0.0,Cr-O-S,3,CrSO9
0.0,Cr-Sb,2,CrSb
2.2315000000000005,Cr-O-P-Sb,4,CrSb(PO4)2
1.5183999999999995,Cr-O-P-Sb,4,CrSb(PO4)2
0.0,Cr-Sb,2,CrSb2
1.2841000000000002,Cr-O-P-Sb,4,CrSb3(PO4)6
0.8623000000000003,Cr-O-Sb,3,CrSbO4
1.8455000000000004,Cr-O-Sb,3,CrSbO4
1.6034000000000002,Cr-O-Sb,3,CrSbO4
1.4198,Cr-O-Sb,3,CrSbO4
0.0,Cr-Pt-Sb,3,CrSbPt
0.0,Cr-S-Sb,3,CrSbS3
0.0,Cr-Sb-Se,3,CrSbSe3
0.8939000000000004,Cr-O-Sb-Te,4,CrSbTeO6
0.0,Cr-Se,2,CrSe
0.0,Cr-Se,2,CrSe2
0.0,Cr-Si,2,CrSi
0.0012,Ag-Cr-O-Si,4,CrSi(Ag3O4)2
0.3638999999999992,Cr-Si,2,CrSi2
0.0,Cr-Si,2,CrSi2
0.6760999999999999,Cr-N-Si,3,CrSi7N10
0.0,Cr-F-H-O-Si,5,CrSiH12(OF)6
0.032,Cr-F-H-O-Si,5,CrSiH8(O2F3)2
0.0,Cr-Mo-Si,3,CrSiMo
0.0,Cr-Ni-Si,3,CrSiNi
0.5381,Cr-O-Si,3,CrSiO5
0.0,Cr-Ru-Si,3,CrSiRu2
0.0,Cr-Si-Te,3,CrSiTe3
0.0,Cr-Si-W,3,CrSiW
0.0,Cr-Sn,2,CrSn2
0.2227999999999999,Cr-O-P-Sn,4,CrSn3(PO4)6
0.0,Au-Cr-Sn,3,CrSn4Au
0.0,Cr-Rh-Sn,3,CrSnRh2
0.0,Cr-Ru-Sn,3,CrSnRu2
0.9726,Cr-O-Sb-Sn,4,CrSnSbO6
0.0,Cr-O-Tc,3,CrTcO3
0.0,Cr-Te,2,CrTe
1.3715000000000002,Cr-O-Te-W,4,CrTe(WO6)2
0.0,Au-Cr-Te,3,CrTe4Au
0.0,Cr-N-Te,3,CrTeN
0.0,Cr-W,2,CrW
0.0,Cr-N-W,3,CrW2N3
0.0,Cr-N-W,3,CrWN2
0.8863000000000001,Cr-O-W,3,CrWO3
0.0,Cr-O-W,3,CrWO4
0.8938,Cr-O-W,3,CrWO6
0.1177,Cr-O-W,3,CrWO6
0.9029,Cr-O-W,3,CrWO6
0.0,Cs,1,Cs
0.0,As-Cs-Ir,3,Cs(AsIr)2
0.0,As-Cs-Rh,3,Cs(AsRh)2
0.0,As-Cs-Ru,3,Cs(AsRu)2
4.324199999999999,B-Cs-H,3,Cs(BH)3
5.3831,B-Cs-H,3,Cs(BH)6
0.0,B-Cs-O,3,Cs(BO)12
2.7110000000000003,C-Cs-O,3,Cs(CO)2
0.0,As-Co-Cs,3,Cs(CoAs)2
0.0,Co-Cs-S,3,Cs(CoS)2
0.0,Co-Cs-Se,3,Cs(CoSe)2
0.0,Cr-Cs-S,3,Cs(CrS2)2
0.0,As-Cs-Fe,3,Cs(FeAs)2
0.0,Cs-Fe-P,3,Cs(FeP)2
0.0,Cs-Fe-Sb,3,Cs(FeSb)2
0.0,Cs-Mn-P,3,Cs(MnP)2
0.0,Cs-Mo-O,3,Cs(MoO3)3
0.0,Cs-Mo-S,3,Cs(MoS)3
0.0,Cs-Mo-Se,3,Cs(MoSe)3
0.3897999999999992,Cs-Nb-S,3,Cs(Nb3S4)2
0.3407999999999997,Cs-Nb-Te,3,Cs(Nb3Te4)2
0.0,Cs-Nb-S,3,Cs(NbS2)2
0.0,Cs-Np-Se,3,Cs(NpSe3)2
0.0,Cs-O-Os,3,Cs(OsO3)2
0.0,Cs-Ir-P,3,Cs(PIr)2
0.0,Cs-P-Rh,3,Cs(PRh)2
0.0,Cs-P-Ru,3,Cs(PRu)2
1.4413,Cs-S-Sb,3,Cs(SbS2)2
1.1220000000000003,Cs-Sb-Se,3,Cs(SbSe2)2
0.0166999999999999,Cs-O-Se,3,Cs(SeO3)2
0.0,Cs-Mo-Te,3,Cs(TeMo)3
0.0,Cs-O-Te,3,Cs(TeO3)2
0.3616999999999999,Cs-O-Te,3,Cs(TeO3)2
0.0,Cs-Se-Th,3,Cs(ThSe3)2
0.0,Cs-Te-Th,3,Cs(ThTe3)2
0.0,Cs-Se-Ti,3,Cs(Ti3Se4)2
2.0825,Cl-Cs-Sb,3,CsSbCl6
5.0381,Cs-F-Sb,3,CsSbF6
3.4555,Cs-H-O-Sb,4,CsSbH4O5
2.3758000000000004,Cs-O-Sb,3,CsSbO2
0.0,Cs-O-Sb,3,CsSbO3
2.6292,Cs-F-O-S-Sb,5,CsSbS6(O3F)6
0.1128,Cs-I-S-Sb,4,CsSbSI2
0.9535999999999998,Cs-O-Sb-Te,4,CsSbTeO6
2.7263,Cs-O-Sb-W,4,CsSbWO6
0.1143,Cs-O-Sb-W,4,CsSbWO6
4.1888000000000005,Cs-O-S-Sc,4,CsSc(SO4)2
4.1422,Cs-O-Sc-W,4,CsSc(WO4)2
4.1966,Cs-O-Sc-W,4,CsSc(WO4)2
0.0069999999999996,Cs-Cu-Sc-Te,4,CsSc3(CuTe3)2
5.3828,Cs-F-Sc,3,CsSc3F10
0.0066999999999999,Ag-Cs-F-Sc,4,CsScAgF6
0.0,Br-Cs-Sc,3,CsScBr3
0.0,Cl-Cs-Sc,3,CsScCl3
0.0,Cs-Cu-F-Sc,4,CsScCuF6
0.0,Cs-I-Sc,3,CsScI3
2.9595,Cs-O-Sc,3,CsScO2
0.0,Cs-Sc-Se-U,4,CsScUSe5
0.0,Cs-Se,2,CsSe
0.0,Br-Cs-Se,3,CsSeBr3
0.0,Cs-O-Se,3,CsSeO4
2.798300000000001,Cs-N-Si,3,CsSi2N3
0.8319999999999999,Cs-I-Si,3,CsSiI3
3.6407,Cs-Mo-O-Sm,4,CsSm(MoO4)2
3.6731,Cs-Mo-O-Sm,4,CsSm(MoO4)2
3.2265,Cs-Mo-O-Sm,4,CsSm(MoO4)2
3.4736,Cs-O-Sm-W,4,CsSm(WO4)2
0.9508,Cs-Cu-Se-Sm,4,CsSm2CuSe4
1.4476,Cs-Nb-O-Sm-Ti,5,CsSm2Ti2NbO10
2.0217,Cd-Cs-Se-Sm,4,CsSmCdSe3
1.5693,Cd-Cs-Sm-Te,4,CsSmCdTe3
0.0,Cl-Cs-Sm,3,CsSmCl3
1.3625,Cs-Hg-Se-Sm,4,CsSmHgSe3
0.0,Cs-I-Sm,3,CsSmI3
0.5311999999999999,Cs-Mn-Se-Sm,4,CsSmMnSe3
2.9281000000000006,Cs-O-Sm,3,CsSmO2
0.0,Cs-O-Sm,3,CsSmO3
2.1397,Cs-S-Sm,3,CsSmS2
2.0424,Cs-Se-Sm-Zn,4,CsSmZnSe3
1.4086000000000003,Cs-Sm-Te-Zn,4,CsSmZnTe3
0.0,Cs-Sn,2,CsSn3
0.5984,Br-Cs-Sn,3,CsSnBr3
0.9787,Cl-Cs-Sn,3,CsSnCl3
3.7852,Cs-F-Sn,3,CsSnF3
3.099,Cs-F-Sn,3,CsSnF3
3.828,Cs-F-Sn,3,CsSnF3
0.4499999999999997,Cs-I-Sn,3,CsSnI3
0.5537000000000001,Cs-I-Sn,3,CsSnI3
0.7113999999999994,Cs-N-Sn,3,CsSnN
0.0,Cs-O-Sn,3,CsSnO3
1.6557000000000002,Cs-S-Sn,3,CsSnS3
1.1895999999999998,Cs-Se-Sn,3,CsSnSe3
1.0499000000000005,Cs-Se-Sn,3,CsSnSe3
5.3107,B-Cs-H-Sr,4,CsSr(BH4)3
0.0,Cs-Mg-Nb-O-Sr,5,CsSr2MgNb3O10
1.4423,Cs-Nb-O-Sr,4,CsSr2Nb3O10
2.0452000000000004,Cs-O-Sr-Ta,4,CsSr2Ta3O10
0.0,Cs-Sr,2,CsSr3
4.1683,Br-Cs-Sr,3,CsSrBr3
4.4089,Br-Cs-Sr,3,CsSrBr3
5.0049,Cl-Cs-Sr,3,CsSrCl3
4.970000000000001,Cl-Cs-Sr,3,CsSrCl3
5.0298,Cl-Cs-Sr,3,CsSrCl3
5.2868,Cl-Cs-Sr,3,CsSrCl3
6.1846,Cs-F-Sr,3,CsSrF3
3.959,Cs-I-Sr,3,CsSrI3
3.6132,Cs-I-Sr,3,CsSrI3
0.0,Cs-Mg-Sr,3,CsSrMg14
3.8236,Cs-N-Sr,3,CsSrN9
0.0,Cs-O-Sr,3,CsSrO3
3.9486,Cs-H-O-Si-Sr,5,CsSrSiHO4
3.9559,Cs-H-O-Si-Sr,5,CsSrSiHO4
3.4027,B-Cs-O-Ta,4,CsTa(BO3)2
3.3857000000000004,Cs-O-P-Ta,4,CsTa(PO4)2
2.9077,Cl-Cs-Ta,3,CsTaCl6
2.6894,Co-Cs-F-O-Ta,5,CsTaCo(OF2)2
0.9885000000000002,Cs-Ge-S-Ta,4,CsTaGeS5
2.1446,Cs-N-Ta,3,CsTaN2
1.8627,Cs-O-Ta,3,CsTaO3
0.5150999999999999,Cs-S-Ta,3,CsTaS3
0.1212999999999997,Cs-Se-Ta,3,CsTaSe3
0.0,Cs-Ta-Te,3,CsTaTe3
3.1466000000000003,Cs-O-Ta-W,4,CsTaWO6
3.1179,Cs-Mo-O-Tb,4,CsTb(MoO4)2
3.6397,Cs-Mo-O-Tb,4,CsTb(MoO4)2
3.4158000000000004,Cs-O-Tb-W,4,CsTb(WO4)2
2.0647,Cd-Cs-Se-Tb,4,CsTbCdSe3
1.5409000000000002,Cd-Cs-Tb-Te,4,CsTbCdTe3
0.5118,Cs-Mn-Se-Tb,4,CsTbMnSe3
0.0,Cs-O-Tb,3,CsTbO3
2.1420000000000003,Cs-S-Tb,3,CsTbS2
2.2054,Cs-S-Tb,3,CsTbS2
2.1028,Cs-Se-Tb-Zn,4,CsTbZnSe3
1.3573,Cs-Tb-Te-Zn,4,CsTbZnTe3
3.4144,Cs-O-Tc,3,CsTcO4
1.0019,Cs-Te,2,CsTe
1.416,Au-Cs-Te,3,CsTeAu
1.2977,Au-Cs-Te,3,CsTeAu
0.0,Cs-O-Te,3,CsTeO3
0.0,Cs-Th,2,CsTh
4.5121,Cs-O-P-Th,4,CsTh2(PO4)3
0.0,Cs-O-Th,3,CsThO3
0.0,Cs-Cu-Te-Ti,4,CsTi2(CuTe4)2
2.8299,Cs-F-O-Ti,4,CsTi2(OF)3
2.5601,Al-Cs-O-Ti,4,CsTi3AlO8
2.7906,Cs-O-P-Ti,4,CsTi3P5O19
0.0,Cs-Se-Ti,3,CsTi5Se8
0.0,Cs-O-Ti,3,CsTi6O12
3.8816,Al-Cs-O-Ti,4,CsTiAlO4
0.0,Br-Cs-Ti,3,CsTiBr3
0.0,Cl-Cs-Ti,3,CsTiCl3
1.4611,Cs-Cu-Se-Ti,4,CsTiCu3Se4
1.0155000000000003,Cs-Cu-Se-Ti,4,CsTiCu3Se4
0.0,Cs-Cu-F-O-Ti,5,CsTiCuOF5
0.0,Cs-F-Ti,3,CsTiF4
0.0,Cs-I-Ti,3,CsTiI3
1.6313000000000002,Cs-F-Mn-O-Ti,5,CsTiMnOF5
2.4272,Cs-F-Nb-O-Ti,5,CsTiNb(O2F)2
0.0,Cs-O-Ti,3,CsTiO3
0.0,Cs-S-Ti,3,CsTiS2
3.1448,Cs-F-O-Ti-Zn,5,CsTiZnOF5
0.2939999999999999,Ag-Cs-F-Tl,4,CsTlAgF6
0.4264,Br-Cs-Tl,3,CsTlBr3
0.9985,Br-Cs-Tl,3,CsTlBr3
0.0,Cl-Cs-Tl,3,CsTlCl3
1.2584,Cl-Cs-Tl,3,CsTlCl3
0.0,Cs-Cu-F-Tl,4,CsTlCuF6
2.1858,Cs-F-Tl,3,CsTlF3
0.0,Cs-F-Tl,3,CsTlF3
2.8001,Cs-F-Tl,3,CsTlF4
2.7921,Cs-F-Tl,3,CsTlF4
1.3911000000000002,Cs-O-Tl,3,CsTlO
0.9780999999999996,Cs-O-Tl,3,CsTlO2
0.0,Cs-O-Tl,3,CsTlO3
2.9972,Cs-Mo-O-Tm,4,CsTm(MoO4)2
3.5623000000000005,Cs-Mo-O-Tm,4,CsTm(MoO4)2
3.5847,Cs-Mo-O-Tm,4,CsTm(MoO4)2
3.3918,Cs-O-Tm-W,4,CsTm(WO4)2
4.7348,Cs-O-Tm-W,4,CsTm(WO4)2
0.0,Br-Cs-Tm,3,CsTmBr3
1.548,Cd-Cs-Te-Tm,4,CsTmCdTe3
0.0,Cl-Cs-Tm,3,CsTmCl3
0.0,Co-Cs-S-Tm,4,CsTmCoS3
0.0,Cs-H-Tm,3,CsTmH3
0.5038,Cs-Mn-Se-Tm,4,CsTmMnSe3
2.776,Cs-O-Tm,3,CsTmO2
2.224,Cs-S-Tm,3,CsTmS2
2.1573,Cs-S-Tm,3,CsTmS2
2.1716,Cs-Se-Tm-Zn,4,CsTmZnSe3
1.3838999999999997,Cs-Te-Tm-Zn,4,CsTmZnTe3
0.6022000000000003,Cs-O-P-U,4,CsU(PO4)2
0.1779000000000001,Cs-F-U,3,CsU2F9
0.0,Cs-F-U,3,CsU2F9
0.1117999999999996,Cs-F-U,3,CsU2F9
0.0,Cs-O-U,3,CsU2O6
0.0,Ag-Cs-S-U,4,CsUAgS3
0.0,Ag-Cs-Se-U,4,CsUAgSe3
0.0,Au-Cs-Se-U,4,CsUAuSe3
0.0,Br-Cs-U,3,CsUBr3
0.0,Cs-Cu-S-U,4,CsUCuS3
0.0,Cs-Cu-Se-U,4,CsUCuSe3
0.0,Cs-Cu-Te-U,4,CsUCuTe3
0.9397,Cs-F-U,3,CsUF6
0.4571000000000005,Cs-O-U,3,CsUO3
0.1377999999999999,Cs-N-O-P-U,5,CsUPNO9
1.6823,Cs-O-Sb-U,4,CsUSbO6
0.0,Au-Cs-Te-U,4,CsUTe3Au
0.0,Cs-Mo-O-V,4,CsV(MoO4)2
2.1697,Cr-Cs-O-V,4,CsV2CrO7
0.0,Cs-O-V,3,CsV2O5
1.4234,Cs-O-V,3,CsV2O5
0.0,Cs-O-S-V,4,CsV2S2O
0.0,B-Cs-H-O-P-V,6,CsV3B2P4(H4O11)2
2.0706,Cs-O-V,3,CsV3O8
0.0,Cs-S-V,3,CsV5S8
0.0,Cs-Se-V,3,CsV5Se8
0.6528,Br-Cs-V,3,CsVBr3
0.0,C-Cs-V,3,CsVC6
0.4834999999999998,Cl-Cs-V,3,CsVCl3
2.2164,Co-Cs-F-V,4,CsVCoF6
0.2761,Cs-Cu-Se-V,4,CsVCu3Se4
0.0,Cs-Cu-F-V,4,CsVCuF6
0.0,Cs-F-V,3,CsVF4
1.814,Cs-F-Fe-V,4,CsVFeF6
2.7577000000000003,C-Cs-H-O-V,5,CsVH12(C2O7)2
0.5972999999999997,Cs-I-V,3,CsVI3
0.5028000000000001,Cs-N-V,3,CsVN2
2.3655,Cs-F-Ni-V,4,CsVNiF6
3.1105,Cs-O-V,3,CsVO3
2.7058,Cs-F-O-V,4,CsVOF3
0.0,Cs-P-S-V,4,CsVP2S7
1.7666,Cs-O-Te-V,4,CsVTeO6
1.787,Cs-O-V-W,4,CsVWO6
2.2966,Cs-F-V-Zn,4,CsVZnF6
0.0,Cl-Cs-W,3,CsWCl6
0.0,Cs-Y,2,CsY
3.6086,Cs-Mo-O-Y,4,CsY(MoO4)2
3.6146,Cs-Mo-O-Y,4,CsY(MoO4)2
3.9764,Cs-Mo-O-Y,4,CsY(MoO4)2
3.4186000000000005,Cs-O-W-Y,4,CsY(WO4)2
0.342,C-Cs-O-Y,4,CsYC4O9
2.0855,Cd-Cs-Se-Y,4,CsYCdSe3
1.3946,Cs-Hg-Se-Y,4,CsYHgSe3
0.0,Cs-Mg-Y,3,CsYMg14
0.2154999999999995,Cs-Mg-O-Y,4,CsYMg14O16
0.3424000000000005,Cs-Mg-O-Y,4,CsYMg14O16
0.0,Cs-Mg-Y,3,CsYMg6
0.0,Cs-Mg-O-Y,4,CsYMg6O8
0.5245000000000002,Cs-Mn-Se-Y,4,CsYMnSe3
2.8461,Cs-O-Y,3,CsYO2
2.1117,Cs-Se-Y-Zn,4,CsYZnSe3
1.4051000000000005,Cs-Te-Y-Zn,4,CsYZnTe3
3.9656,Cs-H-O-P-Zn,5,CsZn2P2HO8
2.826,B-Cs-O-Zn,4,CsZn4(BO3)3
0.0,As-Cs-Zn,3,CsZn4As3
0.1202,Cs-P-Zn,3,CsZn4P3
0.0,Cs-Zn,2,CsZn8
4.9295,B-Cs-O-P-Zn,5,CsZnB(PO4)2
1.6216,Co-Cs-F-Zn,4,CsZnCoF6
2.2145,Cs-F-Fe-Zn,4,CsZnFeF6
0.2017,Cs-N-Zn,3,CsZnN
1.0698,Cs-N-Zn,3,CsZnN
0.0,Cs-F-Ni-Zn,4,CsZnNiF6
4.0751,Cs-O-P-Zn,4,CsZnPO4
1.4043,Cs-Cu-Se-Zr,4,CsZrCu3Se4
0.2984,Cs-Cu-Se-Zr,4,CsZrCuSe3
1.1364,Cs-F-O-Zr,4,CsZrOF5
0.0,Cu,1,Cu
0.0,Ag-Cu-O,3,Cu(AgO)2
0.0,As-Cu-O,3,Cu(AsO2)2
0.0,B-Cu-O,3,Cu(BO2)2
0.0,Bi-Cu-Ir,3,Cu(Bi4Ir)3
0.0,Bi-Cu-O,3,Cu(BiO2)2
0.1307,Br-Cu-N,3,Cu(BrN)2
0.0,Br-Cu-N,3,Cu(BrN3)2
0.0,C-Cu-O,3,Cu(CO)4