eg,chemsys,nelements,formula
0.0,Bi-Eu-O-W-Zn,5,EuZnBiWO6
0.0,Eu-Ga-Zn,3,EuZnGa
0.0,Eu-Ge-Zn,3,EuZnGe
0.0,Eu-In-Zn,3,EuZnIn
0.0,Eu-In-Zn,3,EuZnIn3
0.0,Eu-Pb-Zn,3,EuZnPb
0.0,Eu-Pd-Zn,3,EuZnPd
0.0,Eu-Si-Zn,3,EuZnSi
0.0,Eu-Sn-Zn,3,EuZnSn
0.1897999999999999,Eu-O-Sn-W-Zn,5,EuZnSnWO6
0.0009000000000005,Eu-O-Sn-Zr,4,EuZr2SnO6
0.2057000000000002,Eu-O-Zr,3,EuZr4O9
0.0,Eu-O-Sn-Zr,4,EuZr4SnO12
0.0,Bi-Co-Eu-O-Zr,5,EuZrCoBiO6
0.0,Bi-Cr-Eu-O-Zr,5,EuZrCrBiO6
0.5628000000000002,Eu-F-Zr,3,EuZrF6
0.1391999999999997,Eu-F-Zr,3,EuZrF7
0.0,Bi-Eu-Fe-O-Zr,5,EuZrFeBiO6
0.1865999999999994,Eu-O-Zr,3,EuZrO3
0.3877000000000006,Eu-O-Zr,3,EuZrO3
0.1452999999999997,Eu-S-Zr,3,EuZrS3
0.0,Eu-O-Sn-V-Zr,5,EuZrVSnO6
0.0,F,1,F2
2.6938,F,1,F2
2.4556,F,1,F2
3.0949,F,1,F2
0.0,Fe,1,Fe
2.4168000000000003,As-Fe-O,3,Fe(AsO2)2
0.0,B-Fe-Mo,3,Fe(B2Mo)2
0.0,B-Fe-Mo,3,Fe(BMo)2
0.5643000000000002,B-Fe-O,3,Fe(BO)6
0.0,B-Fe-O,3,Fe(BO)6
3.8031,B-Fe-O,3,Fe(BO2)2
4.099600000000001,B-Fe-O,3,Fe(BO2)2
0.0,B-Fe-O,3,Fe(BO2)2
0.0,B-Fe-Rh,3,Fe(BRh2)3
0.0,B-Fe-W,3,Fe(BW)2
0.0,Br-Fe-N,3,Fe(BrN)2
1.5943000000000005,C-Fe-N,3,Fe(C4N3)2
0.0,C-Fe-N,3,Fe(CN)3
0.0,C-Fe-N,3,Fe(CN)6
3.4783,C-Fe-O,3,Fe(CO)5
2.2865,C-Fe-O,3,Fe(CO)5
0.0,C-Fe-O,3,Fe(CO)6
0.0,C-Fe-O,3,Fe(CO3)2
1.1199,C-Fe-O,3,Fe(CO3)2
2.2922,Cl-Fe-O,3,Fe(ClO2)2
0.0,Cl-Fe-O,3,Fe(ClO2)3
0.0,Cl-Fe-O,3,Fe(ClO7)2
0.0,Co-Fe-N,3,Fe(Co5N4)2
0.0,Co-Fe-N,3,Fe(CoN)2
0.0,Co-Fe-N,3,Fe(CoN)3
0.2705999999999999,Co-Fe-O,3,Fe(CoO2)2
0.0,Co-Fe-O,3,Fe(CoO3)2
0.0,Co-Fe-S,3,Fe(CoS)8
0.0,Co-Fe-Se,3,Fe(CoSe2)2
0.0,C-Cu-Fe,3,Fe(CuC6)2
0.0,Cu-Fe-S,3,Fe(CuS)2
0.0,Fe-Ge-O,3,Fe(GeO3)2
0.0673999999999999,Fe-Ge-O,3,Fe(GeO3)2
2.3104,Fe-H-O,3,Fe(HO)2
2.4707,Fe-H-O,3,Fe(HO)2
2.4268,Fe-H-O,3,Fe(HO)2
2.4612000000000003,Fe-I-O,3,Fe(IO3)3
0.0,Fe-Mo-S,3,Fe(Mo3S4)2
0.0,Fe-Mo-Se,3,Fe(Mo3Se4)2
0.8519,Fe-Mo-O,3,Fe(MoO5)2
0.1309,Fe-Mo-O,3,Fe(MoO5)2
0.0,Fe-Mo-S,3,Fe(MoS2)2
0.0,Cl-Fe-N,3,Fe(NCl)2
1.5727999999999998,F-Fe-N,3,Fe(NF2)3
0.0,F-Fe-N,3,Fe(NF2)3
0.0,As-Fe-Ni,3,Fe(NiAs)2
0.0,Fe-N-Ni,3,Fe(NiN)3
0.0,Fe-Ni-O,3,Fe(NiO2)2
0.0,Fe-Ni-S,3,Fe(NiS2)2
0.0,Fe-Ni-Se,3,Fe(NiSe2)2
0.2330999999999998,F-Fe-O,3,Fe(O2F)2
2.3833,Fe-O-P,3,Fe(PO3)2
1.6221,Fe-O-P,3,Fe(PO3)3
0.0,Fe-O-P,3,Fe(PO3)4
0.0815,Fe-O-P,3,Fe(PO3)4
0.1547,Fe-O-P,3,Fe(PO3)4
0.0,Fe-O-P,3,Fe(PO4)3
0.0,Fe-P-S,3,Fe(PS3)2
0.0,Fe-N-Pd,3,Fe(PdN)2
0.0,Fe-Pd-Se,3,Fe(PdSe)2
0.0,Fe-N-Re,3,Fe(ReN2)3
0.0,Fe-O-Re,3,Fe(ReO3)2
0.0,Fe-Rh-S,3,Fe(RhS2)2
0.0,Fe-Rh-Se,3,Fe(RhSe2)2
0.0,Fe-O-S,3,Fe(SO4)2
0.5327000000000002,Fe-O-Sb,3,Fe(SbO2)2
0.1585999999999998,Fe-O-Sb,3,Fe(SbO2)2
0.0,Fe-O-Sb,3,Fe(SbO2)2
1.3937999999999997,Fe-O-Sb,3,Fe(SbO2)2
0.0,Fe-O-Sb,3,Fe(SbO3)2
0.0,Fe-O-Sb,3,Fe(SbO3)4
0.0,Fe-O-Se,3,Fe(Se2O5)2
0.0,Fe-O-Si,3,Fe(Si2O3)2
0.723,Fe-O-Si,3,Fe(SiO3)2
0.0,Fe-O-Si,3,Fe(SiO3)2
1.0233,Fe-P-Si,3,Fe(SiP)4
0.0,Fe-Se-Si,3,Fe(SiSe2)2
0.0,Fe-O-W,3,Fe(WO4)2
0.0,Co-Fe-N,3,Fe10CoN8
0.0,Cu-Fe-N,3,Fe10CuN8
0.0,Fe-N-Ni,3,Fe10NiN8
1.2106,Fe-O,2,Fe10O11
1.3085999999999998,Fe-O,2,Fe10O11
0.1862999999999992,Fe-O,2,Fe10O11
0.0,F-Fe-O,3,Fe10O11F9
0.8945000000000001,F-Fe-O,3,Fe10O11F9
0.8926999999999998,F-Fe-O,3,Fe10O11F9
0.0,F-Fe-O,3,Fe10O19F
1.0712,F-Fe-O,3,Fe10O9F11
0.8955000000000002,F-Fe-O,3,Fe10O9F11
0.3015000000000003,F-Fe-O,3,Fe10O9F11
0.8932999999999998,F-Fe-O,3,Fe10O9F11
1.1971,F-Fe-O,3,Fe10O9F11
0.8992,F-Fe-O,3,Fe10O9F11
0.0,F-Fe-O,3,Fe10O9F11
0.6011,F-Fe-O,3,Fe10O9F11
0.5983000000000003,F-Fe-O,3,Fe10O9F11
0.8964000000000001,F-Fe-O,3,Fe10O9F11
0.2987000000000002,F-Fe-O,3,Fe10O9F11
1.1994000000000002,F-Fe-O,3,Fe10O9F11
0.5968,F-Fe-O,3,Fe10O9F11
0.2984999999999997,F-Fe-O,3,Fe10O9F11
0.4561000000000001,F-Fe-O,3,Fe10O9F11
0.5989,F-Fe-O,3,Fe10O9F11
1.1931,F-Fe-O,3,Fe10O9F11
1.1675999999999995,F-Fe-O,3,Fe10O9F11
0.3003,F-Fe-O,3,Fe10O9F11
1.9662,F-Fe-O,3,Fe10OF19
2.0,F-Fe-O,3,Fe10OF19
0.4866999999999999,F-Fe-O,3,Fe10OF19
1.1967000000000003,F-Fe-O,3,Fe10OF19
1.8969,F-Fe-O,3,Fe10OF19
1.3841,F-Fe-O,3,Fe10OF19
0.0,Fe-Ni-O,3,Fe11(NiO3)8
0.0,Co-Fe,2,Fe11Co5
0.0,C-Fe-Mo,3,Fe11Mo6C5
0.0,C-Fe-Mo,3,Fe11MoC4
1.3876,Fe-O,2,Fe11O12
0.0,Fe-Si,2,Fe11Si5
0.0,As-Fe,2,Fe12As5
0.0,As-Fe-Ge,3,Fe12Ge3As2
0.0,Fe-N,2,Fe12N5
0.0,Fe-O,2,Fe12O13
0.0,Co-Fe,2,Fe13Co3
0.0,Cu-Fe-O,3,Fe13Cu5O24
0.0,Fe-Ge,2,Fe13Ge3
0.0,Fe-O,2,Fe13O14
0.9051,Fe-O,2,Fe13O15
0.0,Fe-O,2,Fe13O19
0.6050999999999993,Fe-O,2,Fe14O15
0.0,Co-Fe,2,Fe15Co
1.4826,Fe-O,2,Fe15O16
0.6044000000000005,Fe-O,2,Fe15O16
1.2205,Fe-O,2,Fe17O18
0.0,C-Fe-N,3,Fe2(CN2)3
1.6598,C-Fe-O,3,Fe2(CO3)3
0.0,Fe-O-P,3,Fe2(PO4)3
0.0,Au-Fe-Pd,3,Fe2(PdAu)3
0.0045,Fe-O-S,3,Fe2(SO4)3
0.0,C-Fe-Mo,3,Fe21(MoC3)2
0.0,C-Fe-W,3,Fe21(WC3)2
1.3487,Fe-O,2,Fe21O23
0.0,B-Fe-W,3,Fe22B6W
0.0,B-C-Fe,3,Fe23(BC)3
0.0,B-Fe,2,Fe23B6
0.0,C-Fe,2,Fe23C6
0.0,Fe-Mo,2,Fe25Mo4
0.0,Ag-Fe-S,3,Fe2AgS3
0.0,As-Fe,2,Fe2As
1.6533,As-Fe-H-O-Pb,5,Fe2As2H2PbO10
1.9064,As-F-Fe-O,4,Fe2AsO4F
0.0,As-Fe-P,3,Fe2AsP
0.0,As-Fe-S,3,Fe2AsS3
0.0526999999999999,As-Fe-O-S,4,Fe2AsSO9
0.0,B-Fe,2,Fe2B
2.025,B-Fe-O-P,4,Fe2B(PO4)3
3.2492,B-Fe-O,3,Fe2B2O5
0.0,B-Fe-Mo,3,Fe2B4Mo
1.1644,B-Fe-O,3,Fe2BO4
0.0,Bi-Fe-O-Sb,4,Fe2BiSbO7
0.0,C-Fe,2,Fe2C
0.9382,C-Fe-O,3,Fe2C2O7
1.627,C-Fe-O,3,Fe2C2O7
0.0,C-Cl-Fe-O,4,Fe2C4Cl2O9
1.4148999999999998,C-Fe-O,3,Fe2CO5
0.0,Cl-Fe-O,3,Fe2ClO3
0.0518999999999998,Co-Fe-O-P,4,Fe2Co(PO4)3
1.746,Co-Fe-H-O-Se,5,Fe2Co3H4(Se3O10)2
0.0,Co-Fe-N,3,Fe2Co3N4
0.0,Co-Fe-O,3,Fe2Co3O10
0.9379999999999996,Co-Fe-O-Sb,4,Fe2Co3Sb3O16
0.0,Co-Fe-N,3,Fe2Co9N8
0.0,C-Co-Fe,3,Fe2CoC
0.0,Co-Fe-Ge,3,Fe2CoGe
0.0,Co-Fe-N,3,Fe2CoN2
1.4375,Co-Fe-O,3,Fe2CoO4
0.1448,Co-Fe-O,3,Fe2CoO4
0.6561000000000003,Co-Fe-O,3,Fe2CoO4
0.8372999999999999,Co-Fe-O,3,Fe2CoO4
1.5511,Co-Fe-O,3,Fe2CoO4
0.8766000000000003,Co-Fe-O,3,Fe2CoO4
0.0,Co-Fe-O,3,Fe2CoO6
0.0,Co-Fe-Se,3,Fe2CoSe4
0.0,Co-Fe-Si,3,Fe2CoSi
0.0,Cu-Fe-O-P,4,Fe2Cu(PO4)3
0.0,Cu-Fe-O-P,4,Fe2Cu(PO5)2
0.0,Cu-Fe-S-Sn,4,Fe2Cu6SnS8
0.0,Cu-Fe-O-P,4,Fe2Cu8P4O21
0.3170999999999999,As-Cu-Fe-H-O,5,Fe2CuAs2(HO5)2
0.7757000000000001,As-Cu-Fe-H-O,5,Fe2CuAs2(HO5)2
0.0,Cu-Fe-Ge,3,Fe2CuGe2
1.0783,Cu-F-Fe-H-O,5,Fe2CuH4(OF4)2
0.0,Cu-Fe-N,3,Fe2CuN2
0.0,Cu-Fe-Ni-Pt,4,Fe2CuNiPt4
0.0,Cu-Fe-O,3,Fe2CuO4
0.0484999999999997,Cu-Fe-Rh-S,4,Fe2CuRh3S8
0.0,Cu-Fe-S,3,Fe2CuS3
0.0,Fe-Ge,2,Fe2Ge
1.4076999999999995,Fe-Ge-O,3,Fe2GeO4
0.3972999999999995,Fe-Ge-S,3,Fe2GeS4
1.145,F-Fe-H-O,4,Fe2H4O2F5
1.1461,Fe-Hg-O,3,Fe2HgO4
0.0,Fe-Ir-O,3,Fe2Ir2O5
0.0,Fe-Ir-N,3,Fe2IrN3
0.0,Fe-Mo,2,Fe2Mo
0.2673000000000005,Fe-Mo-O,3,Fe2Mo3O8
0.0,C-Fe-Mo,3,Fe2Mo4C
0.0,Fe-Mo-N,3,Fe2Mo4N
0.4428999999999998,Fe-Mo-O,3,Fe2Mo4O7
0.0,Fe-Mo-O,3,Fe2Mo4O7
0.0638000000000005,Fe-Mo-O,3,Fe2Mo4O7
0.0,Fe-Mo-O,3,Fe2MoO4
0.0,Fe-N,2,Fe2N
0.0,Fe-N-O,3,Fe2NO8
0.0,Fe-Ni,2,Fe2Ni
3.5217,Fe-Ni-O-P,4,Fe2Ni(PO4)2
0.0,Fe-Ni-O-P,4,Fe2Ni(PO4)2
0.0,Fe-Ni-O-P,4,Fe2Ni(PO4)3
2.0918,Fe-H-Ni-O-Se,5,Fe2Ni3H4(Se3O10)2
0.0,Fe-N-Ni,3,Fe2Ni3N4
0.9977999999999998,Fe-Ni-O-P-W,5,Fe2Ni3P6WO24
0.0,Fe-Ni-O-P-Sb,5,Fe2Ni3Sb(PO4)6
0.0,Fe-N-Ni,3,Fe2Ni9N8
0.0,B-Fe-Ni,3,Fe2NiB
0.0,C-Fe-Ni,3,Fe2NiC
0.0,Fe-N-Ni,3,Fe2NiN2
0.0,Fe-Ni-O,3,Fe2NiO4
1.3615999999999997,Fe-Ni-O,3,Fe2NiO4
0.0,Fe-Ni-P,3,Fe2NiP
0.0,Fe-Ni-Se,3,Fe2NiSe4
0.0,F-Fe-O,3,Fe2O2F3
0.2679999999999998,F-Fe-O,3,Fe2O2F5
0.8155999999999999,F-Fe-O,3,Fe2O2F5
0.0,Fe-O,2,Fe2O3
0.0095,Fe-O,2,Fe2O3
1.6876999999999998,Fe-O,2,Fe2O3
1.0606,Fe-O,2,Fe2O3
1.3134,Fe-O,2,Fe2O3
0.5554000000000001,Fe-O,2,Fe2O3
1.3095,Fe-O,2,Fe2O3
1.5251,Fe-O,2,Fe2O3
1.3902,Fe-O,2,Fe2O3
0.5861000000000001,Fe-O,2,Fe2O3
1.5103,Fe-O,2,Fe2O3
1.3464999999999998,Fe-O,2,Fe2O3
0.0,F-Fe-O,3,Fe2O3F
0.0,Fe-O,2,Fe2O5
2.1602,F-Fe-O,3,Fe2OF2
1.1303,F-Fe-O,3,Fe2OF3
0.1792,F-Fe-O,3,Fe2OF3
0.7917000000000001,F-Fe-O,3,Fe2OF3
1.6619,F-Fe-O,3,Fe2OF3
0.5954000000000002,F-Fe-O,3,Fe2OF3
1.1968,F-Fe-O,3,Fe2OF3
1.3398,F-Fe-O,3,Fe2OF3
1.4915,F-Fe-O,3,Fe2OF3
1.3483,F-Fe-O,3,Fe2OF3
0.0,F-Fe-O,3,Fe2OF3
1.6847,F-Fe-O,3,Fe2OF3
1.632,F-Fe-O,3,Fe2OF3
1.3708,F-Fe-O,3,Fe2OF3
1.3111,F-Fe-O,3,Fe2OF3
1.1962,F-Fe-O,3,Fe2OF3
1.4906,F-Fe-O,3,Fe2OF3
1.1914000000000002,F-Fe-O,3,Fe2OF3
1.1933999999999998,F-Fe-O,3,Fe2OF3
0.0,Fe-P,2,Fe2P
0.7385000000000002,Fe-O-P,3,Fe2P2O7
3.7687,Fe-O-P,3,Fe2P2O7
1.2108000000000003,Fe-O-P,3,Fe2P2O7
0.0,Fe-H-O-P,4,Fe2P3(HO3)3
0.3833999999999999,Fe-O-P,3,Fe2P3O10
0.0,Fe-O-P-Pb,4,Fe2P4PbO14
3.8524,Cl-Fe-O-P,4,Fe2PClO4
0.5959999999999999,Cl-Fe-O-P,4,Fe2PClO4
1.4983000000000002,F-Fe-H-O-P,5,Fe2PHO3F2
0.2855000000000003,F-Fe-O-P,4,Fe2PO4F
0.0,Fe-O-P,3,Fe2PO5
0.8502999999999998,Fe-O-P,3,Fe2PO5
2.838,F-Fe-Pb,3,Fe2Pb3F12
0.0,Fe-N-Pb,3,Fe2Pb3N4
0.0,Fe-O-Pb-W,4,Fe2Pb3WO9
0.0,Fe-N-Pb,3,Fe2PbN2
0.0,Fe-Pd,2,Fe2Pd
0.0,Fe-Pt,2,Fe2Pt
0.0,Fe-Pt-Rh,3,Fe2PtRh
0.0,Fe-Re,2,Fe2Re3
0.0,Fe-Rh-S,3,Fe2RhS4
0.0,Fe-S,2,Fe2S
0.0,Fe-S,2,Fe2S3
1.8952,Fe-O-P-Sb,4,Fe2Sb(PO4)3
1.1471999999999998,Fe-O-Pb-Sb,4,Fe2Sb3PbO8
0.0,Fe-Sb-Te,3,Fe2SbTe3
0.0,Fe-S-Se,3,Fe2SeS
0.0,Fe-Si,2,Fe2Si
0.0247999999999999,Bi-Fe-O-Si,4,Fe2Si2BiO9
0.3387000000000002,Bi-Fe-O-Si,4,Fe2Si2BiO9
0.0116,Fe-O-Sb-Si,4,Fe2Si2SbO9
0.1621999999999999,Fe-O-Sb-Si,4,Fe2Si2SbO9
0.0,Fe-Si,2,Fe2Si5
0.0,Fe-Ni-Si,3,Fe2SiNi
0.9995000000000004,Fe-O-Si,3,Fe2SiO4
2.7611000000000003,Fe-O-Si,3,Fe2SiO4
2.7099,Fe-O-Si,3,Fe2SiO4
2.708600000000001,Fe-O-Si,3,Fe2SiO4
1.0886000000000005,Fe-O-Si,3,Fe2SiO4
0.0,Fe-P-Si,3,Fe2SiP
0.3240999999999996,Fe-S-Si,3,Fe2SiS4
0.0,Fe-S-Si,3,Fe2SiS4
0.2993999999999994,Fe-S-Si,3,Fe2SiS4
0.0,Fe-Sn,2,Fe2Sn
0.0594000000000001,Fe-O-P-Sn,4,Fe2Sn(PO4)3
0.0,Fe-S-Sn,3,Fe2SnS4
0.0,Fe-Te,2,Fe2Te3
0.4046999999999998,Fe-O-Te,3,Fe2Te3O10
0.0,Cl-Fe-O-Te,4,Fe2Te4ClO12
1.5179000000000005,Cl-Fe-H-O-Te,5,Fe2Te4H3ClO12
0.1149,Cl-Fe-H-O-Te,5,Fe2Te4HClO12
1.6448999999999998,Fe-O-Te,3,Fe2TeO5
0.0,Fe-O-Te,3,Fe2TeO6
0.0,Fe-Se-Te,3,Fe2TeSe
0.0,Fe-W,2,Fe2W
0.0,C-Fe-W,3,Fe2W2C
0.0,Fe-O-W,3,Fe2WO6
1.7859,As-Fe-O,3,Fe3(AsO4)2
0.0,As-Fe-O,3,Fe3(AsO8)2
0.0,Br-Fe-O,3,Fe3(BrO2)8
0.0,Co-Fe-N,3,Fe3(CoN)8
0.0,Fe-Ge-N,3,Fe3(GeN)8
0.0,B-Fe-Ni,3,Fe3(Ni10B3)2
0.0,F-Fe-O,3,Fe3(O2F)2
0.298,F-Fe-O,3,Fe3(O2F)2
1.0429,F-Fe-O,3,Fe3(OF)2
0.5985999999999998,F-Fe-O,3,Fe3(OF)2
1.4501000000000002,F-Fe-O,3,Fe3(OF)2
0.5709,F-Fe-O,3,Fe3(OF)2
1.3893,F-Fe-O,3,Fe3(OF2)2
1.3659,F-Fe-O,3,Fe3(OF2)2
1.2227,F-Fe-O,3,Fe3(OF2)2
0.8904999999999998,F-Fe-O,3,Fe3(OF2)2
0.9697,F-Fe-O,3,Fe3(OF2)2
0.8998999999999999,F-Fe-O,3,Fe3(OF2)2
0.5987,F-Fe-O,3,Fe3(OF2)2
1.3468,F-Fe-O,3,Fe3(OF2)2
1.3439,F-Fe-O,3,Fe3(OF2)2
0.8733,F-Fe-O,3,Fe3(OF2)2
1.2595,F-Fe-O,3,Fe3(OF2)2
0.5979000000000001,F-Fe-O,3,Fe3(OF2)2
0.8966000000000001,F-Fe-O,3,Fe3(OF2)2
1.1913,F-Fe-O,3,Fe3(OF2)2
0.2646999999999999,F-Fe-O,3,Fe3(OF2)2
1.4949,F-Fe-O,3,Fe3(OF2)2
1.1625,F-Fe-O,3,Fe3(OF2)2
0.1911,F-Fe-O,3,Fe3(OF3)2
0.0,F-Fe-O,3,Fe3(OF4)2
0.0,Fe-O-P,3,Fe3(P2O7)2
0.0150999999999998,Fe-O-P,3,Fe3(P2O7)2
3.4932,Fe-O-P,3,Fe3(PO4)2
0.1795999999999999,Fe-O-P,3,Fe3(PO5)2
0.4879,Fe-O-P,3,Fe3(PO5)2
0.0,Fe-O-P,3,Fe3(PO6)2
0.0,Fe-O-P,3,Fe3(PO8)2
0.0191999999999999,Fe-O-P,3,Fe3(PO8)2
0.0642999999999999,Fe-O-P,3,Fe3(PO8)2
0.5030000000000001,Fe-S-Se,3,Fe3(Se2S)2
1.4844999999999997,Fe-O-Si,3,Fe3(SiO4)2
0.0,Fe-S-Sn,3,Fe3(SnS4)2
0.0,Fe-N-W,3,Fe3(WN2)4
0.0,Ag-Fe,2,Fe3Ag
0.0,Ag-Fe-S-Sn,4,Fe3Ag(SnS4)2
0.0,Au-Fe,2,Fe3Au
0.0,B-Fe,2,Fe3B
3.6768,B-Br-Fe-O,4,Fe3B7BrO13
3.4903000000000004,B-Br-Fe-O,4,Fe3B7BrO13
2.8149000000000006,B-Cl-Fe-O,4,Fe3B7ClO13
3.0026,B-Fe-I-O,4,Fe3B7IO13
2.9005,B-Fe-I-O,4,Fe3B7IO13
3.4046000000000003,B-Fe-I-O,4,Fe3B7IO13
1.0194999999999994,B-Fe-O,3,Fe3BO5
0.0205000000000001,B-Fe-O,3,Fe3BO5
1.4383,B-Fe-O,3,Fe3BO6
0.0,C-Fe,2,Fe3C
0.0,Co-Fe,2,Fe3Co
0.7248000000000001,Bi-Co-Fe-O,4,Fe3Co(BiO3)4
0.5542,Co-Fe-O-P,4,Fe3Co(PO4)4
0.1861999999999999,Co-Cu-Fe-O-P,5,Fe3Co2Cu(PO4)6
0.0,Co-Fe-Ni-O-P,5,Fe3Co2Ni(PO4)6
0.0064000000000001,Co-Fe-O-P-W,5,Fe3Co2P6WO24
0.0034,Co-Fe-O-P-Sb,5,Fe3Co2Sb(PO4)6
0.0,Co-Fe-O-P-Sn,5,Fe3Co2Sn(PO4)6
0.056,Co-Fe-O-P-Te,5,Fe3Co2Te(PO4)6
0.0,Co-Fe-O-Sb,4,Fe3Co3(SbO8)2
0.0,Co-Fe-O-Te,4,Fe3Co3(TeO8)2
0.0,B-Co-Fe,3,Fe3Co3B2
0.0,Co-Fe-Ge,3,Fe3Co3Ge2
0.0,Co-Fe-Si,3,Fe3Co3Si2
0.1269,Co-Fe-O,3,Fe3Co5O16
0.0,Co-Fe-O,3,Fe3Co5O16
0.0,Co-Fe-O,3,Fe3Co7O20
0.0,As-Bi-Co-Fe-O,5,Fe3CoBi4(AsO6)4
0.0,Co-Cu-Fe-O-P,5,Fe3CoCu2(PO4)6
0.0,Co-Fe-N,3,Fe3CoN
0.0,Co-Fe-Ni-O-P,5,Fe3CoNi2(PO4)6
0.6751999999999998,Co-Fe-O-P-Sb,5,Fe3CoSb2(PO4)6
0.0,Cu-Fe,2,Fe3Cu
0.0,Cu-Fe-O-P,4,Fe3Cu(PO4)4
0.0,Cu-Fe-S-Sn,4,Fe3Cu(SnS4)2
0.0,Cu-Fe-O-P-Sb,5,Fe3Cu2Sb(PO4)6
0.0,Cu-Fe-O-P-Sn,5,Fe3Cu2Sn(PO4)6
0.0,Cu-Fe-O-P-Te,5,Fe3Cu2Te(PO4)6
0.0,As-Cu-Fe,3,Fe3CuAs2
0.0,Cu-Fe-Ni-O-P,5,Fe3CuNi2(PO4)6
0.0,F-Fe,2,Fe3F
0.0,Fe-Ge,2,Fe3Ge
0.0,Fe-Ge,2,Fe3Ge2
0.0,Fe-H,2,Fe3H
1.9047,Fe-H-N-O-S,5,Fe3H10S2NO14
0.9575,F-Fe-H-O,4,Fe3H4(OF4)2
1.9904,Fe-H-O-S,4,Fe3H9S2O15
1.9553,Fe-H-O-S,4,Fe3H9S2O15
0.0,Fe-Mo,2,Fe3Mo
0.0,C-Fe-Mo,3,Fe3Mo3C
0.0,Fe-Mo-N,3,Fe3Mo3N
0.0,Fe-Mo-N,3,Fe3Mo5N8
0.0,Fe-Mo-N-Pd,4,Fe3Mo6PdN2
0.0,Fe-Mo-N-Pt,4,Fe3Mo6PtN2
0.0,Fe-Mo-N-Rh,4,Fe3Mo6RhN2
0.0,Fe-N,2,Fe3N
1.6916,F-Fe-N,3,Fe3NF9
0.0,Fe-Ni,2,Fe3Ni
0.0,Fe-Mo-N-Ni,4,Fe3Ni(Mo3N)2
0.0,Fe-Ni-O-P,4,Fe3Ni(PO4)4
0.0,Fe-Ni,2,Fe3Ni2
2.1213,Fe-Ni-O-P-W,5,Fe3Ni2P6WO24
2.1182000000000007,Fe-Ni-O-P-Sb,5,Fe3Ni2Sb(PO4)6
0.0,Fe-Ni-O-P-Sn,5,Fe3Ni2Sn(PO4)6
0.0749999999999997,Fe-Ni-O-P-Te,5,Fe3Ni2Te(PO4)6
0.0,B-Fe-Ni,3,Fe3Ni3B2
0.0,Fe-Ge-Ni,3,Fe3Ni3Ge2
0.0,Fe-Ni-P,3,Fe3Ni3P2
0.0,Fe-Ni-Pt,3,Fe3Ni3Pt2
0.0,As-Fe-Ni,3,Fe3NiAs4
0.0,As-Fe-Ni,3,Fe3NiAs8
0.0,F-Fe-Ni,3,Fe3NiF6
0.0,Fe-N-Ni,3,Fe3NiN
0.0,Fe-Ni-P,3,Fe3NiP2
0.0,Fe-Ni-P,3,Fe3NiP4
0.0,Fe-Ni-O-P-Sb,5,Fe3NiSb2(PO4)6
0.0,Fe-Ni-Sb,3,Fe3NiSb8
0.0584999999999999,Fe-Ni-O-P-Sn,5,Fe3NiSn2(PO4)6
0.0,Fe-O,2,Fe3O
0.0,Fe-O,2,Fe3O4
1.0689000000000002,Fe-O,2,Fe3O4
0.3250999999999999,Fe-O,2,Fe3O4
1.0663,Fe-O,2,Fe3O4
0.7769999999999997,Fe-O,2,Fe3O4
0.1220999999999996,Fe-O,2,Fe3O4
1.0229000000000004,Fe-O,2,Fe3O4
1.2089999999999996,Fe-O,2,Fe3O4
0.5739999999999998,Fe-O,2,Fe3O4
0.2435,Fe-O,2,Fe3O4
0.3799000000000001,Fe-O,2,Fe3O4
0.3011999999999997,Fe-O,2,Fe3O4
0.0019,Fe-O,2,Fe3O4
1.0162,Fe-O,2,Fe3O4
0.032,Fe-O,2,Fe3O4
0.0201000000000002,Fe-O,2,Fe3O4
0.0,F-Fe-O,3,Fe3O5F
1.3139,F-Fe-O,3,Fe3OF5
0.2558,F-Fe-O,3,Fe3OF5
1.4096,F-Fe-O,3,Fe3OF5
1.7313,F-Fe-O,3,Fe3OF5
0.0,F-Fe-O,3,Fe3OF5
1.6254,F-Fe-O,3,Fe3OF5
1.1912,F-Fe-O,3,Fe3OF5
1.1961,F-Fe-O,3,Fe3OF5
0.595,F-Fe-O,3,Fe3OF5
0.2575,F-Fe-O,3,Fe3OF5
0.0008000000000001,F-Fe-O,3,Fe3OF5
1.7289,F-Fe-O,3,Fe3OF5
1.5144,F-Fe-O,3,Fe3OF5
1.1966,F-Fe-O,3,Fe3OF5
1.1875999999999998,F-Fe-O,3,Fe3OF5
1.4469,F-Fe-O,3,Fe3OF5
1.5957,F-Fe-O,3,Fe3OF5
2.5709,F-Fe-O,3,Fe3OF7
2.0533,F-Fe-O,3,Fe3OF7
0.7948999999999999,F-Fe-O,3,Fe3OF9
0.0,Fe-P,2,Fe3P
3.7133,Fe-H-O-P,4,Fe3P2(H2O3)4
2.0659,Fe-H-O-P,4,Fe3P2(HO)16
1.6698,Fe-H-O-P,4,Fe3P2(HO)8
1.7308,Fe-H-O-P,4,Fe3P2(HO5)2
0.0,Fe-O-P-Pb,4,Fe3P2PbO14
0.5588000000000002,Fe-O-P-Pb,4,Fe3P3PbO13
0.0837,Fe-O-P-W,4,Fe3P6WO24
1.0991,Fe-H-O-P-Pb-S,6,Fe3PH6PbSO14
1.7147,Fe-O-P,3,Fe3PO7
0.0,Fe-O-Pb-S,4,Fe3Pb(SO7)2
0.0,Fe-N-Pb,3,Fe3Pb3N5
1.2332999999999998,Br-Fe-O-Pb,4,Fe3Pb4BrO8
1.1204999999999998,Cl-Fe-O-Pb,4,Fe3Pb4ClO8
0.0,Fe-Pd,2,Fe3Pd
0.0,Fe-N-Pd,3,Fe3PdN
0.0,Fe-Pt,2,Fe3Pt
0.0,Fe-N-Pt,3,Fe3PtN
0.0,Fe-Re,2,Fe3Re
0.0,Fe-Rh,2,Fe3Rh
0.0,Fe-Rh-S,3,Fe3Rh3S8
0.0,Fe-N-Rh,3,Fe3RhN
0.0,Fe-S,2,Fe3S
0.0,Fe-O-S,3,Fe3S2O15
0.0,Fe-S,2,Fe3S4
0.0,Fe-Sb,2,Fe3Sb
0.0,Fe-O-P-Sb,4,Fe3Sb(PO4)4
0.0,Fe-O-P-Sb,4,Fe3Sb(PO4)6
0.0,Fe-N-Sb,3,Fe3SbN
0.0,Fe-Se,2,Fe3Se
1.1118,Fe-O-Se,3,Fe3Se3O10
0.0,Fe-Se,2,Fe3Se4
0.0,Fe-Si,2,Fe3Si
0.0,Fe-Ni-Si,3,Fe3Si2Ni3
0.0,Fe-O-Si,3,Fe3Si2O9
0.0,Fe-Ir-Si,3,Fe3Si4Ir
0.0,Fe-N-Si,3,Fe3SiN4
0.0,Fe-Ni-Si,3,Fe3SiNi
0.0,Fe-Sn,2,Fe3Sn
0.0,Fe-Sn,2,Fe3Sn2
0.0,C-Fe-Sn,3,Fe3SnC
0.0,Fe-Sb-Sn,3,Fe3SnSb
0.0,Fe-Te,2,Fe3Te
0.0,Fe-Se-Te,3,Fe3Te2Se
0.0,Fe-O-Te,3,Fe3TeO8
0.0,Fe-W,2,Fe3W
0.0,C-Fe-W,3,Fe3W10C3
0.0,C-Fe-W,3,Fe3W3C
0.0,Fe-N-W,3,Fe3W3N
0.0,Fe-N-W,3,Fe3W5N8
0.0,Cu-Fe-O,3,Fe4(CuO4)3
0.0766,Fe-O-P,3,Fe4(PO4)3
1.5799,Fe-O-P,3,Fe4(PO4)3
0.0,Ag-F-Fe-Xe,4,Fe4AgXeF5
0.9936000000000004,As-Fe-O,3,Fe4As2O11
0.7292000000000001,As-Fe-O,3,Fe4As2O11
0.1585,As-Fe-O,3,Fe4As3O16
0.0181999999999999,As-Fe-O,3,Fe4As3O23
0.0,As-Fe-O,3,Fe4As3O23
0.0540999999999999,As-Fe-H-O,4,Fe4As4H4O19
1.2366,Bi-Fe-O,3,Fe4Bi2O9
0.0,C-Fe,2,Fe4C
0.0,C-Fe-N,3,Fe4CN4
1.082,Bi-Co-Fe-O,4,Fe4Co(BiO3)5
1.8370000000000009,Co-Fe-O-P,4,Fe4Co3(PO4)6
0.0,B-Co-Fe-P,4,Fe4CoB2P
0.0,B-Co-Fe-Si,4,Fe4CoSiB2
0.0,Cu-Fe-S,3,Fe4Cu2S7
0.1676000000000002,Cu-Fe-Ni-O,4,Fe4CuNiO8
0.0,Fe-H-O,3,Fe4H14O13
1.8087,Fe-H-O,3,Fe4H14O13
1.8444,Fe-H-O,3,Fe4H14O13
1.8694,Fe-H-O,3,Fe4H14O13
0.0,Fe-Ir-N,3,Fe4IrN4
0.0,Fe-Mo,2,Fe4Mo
0.0,Fe-Mo-N,3,Fe4Mo2N
0.0,Fe-N,2,Fe4N
1.8411000000000004,Fe-Ni-O-P,4,Fe4Ni3(PO4)6
0.0,Fe-Ni-Pd-S,4,Fe4Ni4PdS8
0.0,Fe-O,2,Fe4O13
0.0,F-Fe-O,3,Fe4O3F5
1.3912,F-Fe-O,3,Fe4O3F5
0.2987999999999999,F-Fe-O,3,Fe4O3F5
1.1990999999999998,F-Fe-O,3,Fe4O3F5
0.2994999999999996,F-Fe-O,3,Fe4O3F5
1.2005,F-Fe-O,3,Fe4O3F5
0.7379,F-Fe-O,3,Fe4O3F5
1.1787,F-Fe-O,3,Fe4O3F5
0.8981000000000001,F-Fe-O,3,Fe4O3F5
0.8973000000000002,F-Fe-O,3,Fe4O3F5
0.8299999999999998,F-Fe-O,3,Fe4O3F5
0.897,F-Fe-O,3,Fe4O3F5
1.615,F-Fe-O,3,Fe4O3F5
0.6722000000000001,F-Fe-O,3,Fe4O3F5
0.5970000000000002,F-Fe-O,3,Fe4O3F5
0.0872,F-Fe-O,3,Fe4O3F5
0.8954999999999997,F-Fe-O,3,Fe4O3F5
0.5979000000000003,F-Fe-O,3,Fe4O3F5
1.4527,F-Fe-O,3,Fe4O3F5
0.4542999999999997,F-Fe-O,3,Fe4O3F5
1.4955000000000005,F-Fe-O,3,Fe4O3F5
0.8964000000000001,F-Fe-O,3,Fe4O3F5
1.2903000000000002,F-Fe-O,3,Fe4O3F5
0.0,Fe-O,2,Fe4O5
0.0,F-Fe-O,3,Fe4O5F3
0.0933999999999999,F-Fe-O,3,Fe4O5F3
0.0192000000000001,F-Fe-O,3,Fe4O5F3
0.0954000000000001,F-Fe-O,3,Fe4O5F3
0.0,F-Fe-O,3,Fe4O7F
2.6285000000000003,F-Fe-O,3,Fe4OF6
0.0,F-Fe-O,3,Fe4OF6
2.7805,F-Fe-O,3,Fe4OF6
2.7828,F-Fe-O,3,Fe4OF6
2.3076,F-Fe-O,3,Fe4OF6
1.9109,F-Fe-O,3,Fe4OF7
2.0168,F-Fe-O,3,Fe4OF7
0.7312999999999998,F-Fe-O,3,Fe4OF7
1.9473,F-Fe-O,3,Fe4OF7
0.8003,F-Fe-O,3,Fe4OF7
1.1946,F-Fe-O,3,Fe4OF7
1.1598,F-Fe-O,3,Fe4OF7
0.0484999999999999,F-Fe-O,3,Fe4OF7
1.6445,F-Fe-O,3,Fe4OF7
0.8093999999999999,F-Fe-O,3,Fe4OF7
2.0456,F-Fe-O,3,Fe4OF7
0.5399,F-Fe-O,3,Fe4OF7
0.7885999999999997,F-Fe-O,3,Fe4OF7
0.8366,F-Fe-O,3,Fe4OF7
0.4707000000000001,F-Fe-O,3,Fe4OF7
1.9278,F-Fe-O,3,Fe4OF7
0.0,F-Fe-O,3,Fe4OF7
2.005,F-Fe-O,3,Fe4OF7
1.7312,F-Fe-O,3,Fe4OF7
0.8031999999999999,F-Fe-O,3,Fe4OF7
1.8526,F-Fe-O,3,Fe4OF7
1.4884,F-Fe-O,3,Fe4OF7
1.3306000000000002,F-Fe-O,3,Fe4OF7
0.1150999999999999,F-Fe-O,3,Fe4OF7
1.5281,F-Fe-O,3,Fe4OF7
1.7812,F-Fe-O,3,Fe4OF8
0.0,Fe-P,2,Fe4P
0.0,Fe-N-P-S,4,Fe4P6SN12
0.0,Fe-N-Ru,3,Fe4RuN4
0.0,Fe-Sb,2,Fe4Sb3
0.0,Br-Fe-Se,3,Fe4Se3Br
0.0,Fe-N-Se,3,Fe4Se3N2
0.0,Fe-Si,2,Fe4Si
0.0910999999999999,Fe-O-Si,3,Fe4SiO9
0.0,Fe-O-Si,3,Fe4SiO9
0.0,Fe-S-Te,3,Fe4Te3S
0.0,Fe-Se-Te,3,Fe4Te3Se
0.0,Fe-Se-Te,3,Fe4TeSe3
0.0,Fe-N-W,3,Fe4W2N
0.0,Fe-Ge-N,3,Fe5(GeN3)2
1.6987,Fe-Ge-O,3,Fe5(GeO4)3
0.0,F-Fe-O,3,Fe5(O4F)2
0.0,F-Fe-O,3,Fe5(OF2)4
1.3733000000000002,F-Fe-O,3,Fe5(OF4)2
0.1377999999999999,F-Fe-O,3,Fe5(OF4)2
1.3040999999999998,F-Fe-O,3,Fe5(OF4)2
1.2064,F-Fe-O,3,Fe5(OF4)2
1.3142,F-Fe-O,3,Fe5(OF4)2
0.9344,F-Fe-O,3,Fe5(OF4)2
0.8942999999999999,F-Fe-O,3,Fe5(OF4)2
0.8964999999999999,F-Fe-O,3,Fe5(OF4)2
1.2575999999999998,F-Fe-O,3,Fe5(OF4)2
0.5643,F-Fe-O,3,Fe5(OF4)2
0.9391999999999998,F-Fe-O,3,Fe5(OF4)2
1.4859,F-Fe-O,3,Fe5(OF4)2
1.4931,F-Fe-O,3,Fe5(OF4)2
1.1664,F-Fe-O,3,Fe5(OF4)2
1.7760999999999998,F-Fe-O,3,Fe5(OF4)2
0.8138000000000001,F-Fe-O,3,Fe5(OF4)2
0.6182999999999998,F-Fe-O,3,Fe5(OF4)2
0.9513999999999998,F-Fe-O,3,Fe5(OF4)2
0.5714000000000001,Fe-O-P,3,Fe5(PO4)4
0.0,B-Fe-P,3,Fe5B2P
0.0,C-Fe,2,Fe5C2
1.1190999999999998,Co-Fe-O-P,4,Fe5Co(PO4)6
0.0,Co-Fe,2,Fe5Co3
0.0,Co-Fe-O,3,Fe5Co3O16
0.0,Co-Fe-N,3,Fe5CoN4
0.0,Cu-Fe-O-P,4,Fe5Cu(PO4)6
0.0,Cu-Fe-O-P,4,Fe5Cu2(PO4)6
0.2961,Cu-Fe-O,3,Fe5CuO8
0.1528,Cu-Fe-O,3,Fe5CuO8
0.0,Cu-Fe-O,3,Fe5CuO8
0.0,Fe-Ge-P,3,Fe5GeP
1.1039,Fe-H-O,3,Fe5HO8
0.0,Fe-Ni-O-P,4,Fe5Ni(PO4)6
0.0,Fe-N-Ni,3,Fe5NiN4
0.0,Fe-Ni-O,3,Fe5NiO8
0.5321,F-Fe-O,3,Fe5O3F7
0.3006999999999999,F-Fe-O,3,Fe5O3F7
0.7847999999999997,F-Fe-O,3,Fe5O3F7
1.3664,F-Fe-O,3,Fe5O3F7
0.8980000000000001,F-Fe-O,3,Fe5O3F7
0.8976999999999999,F-Fe-O,3,Fe5O3F7
0.8967999999999998,F-Fe-O,3,Fe5O3F7
0.9021,F-Fe-O,3,Fe5O3F7
0.8991000000000002,F-Fe-O,3,Fe5O3F7
0.7459,F-Fe-O,3,Fe5O3F7
0.0436,F-Fe-O,3,Fe5O3F7
0.6281999999999999,F-Fe-O,3,Fe5O3F7
1.2456,F-Fe-O,3,Fe5O3F7
0.8092000000000001,F-Fe-O,3,Fe5O3F7
1.2357000000000002,F-Fe-O,3,Fe5O3F7
0.8992,F-Fe-O,3,Fe5O3F7
0.7926000000000002,F-Fe-O,3,Fe5O3F7
1.3902,F-Fe-O,3,Fe5O3F7
0.0,Fe-O,2,Fe5O7
1.0353,Fe-O,2,Fe5O7
0.0,F-Fe-O,3,Fe5O7F3
0.0,Fe-O,2,Fe5O8
1.7294,F-Fe-O,3,Fe5OF11
1.2588,F-Fe-O,3,Fe5OF11
0.3031,F-Fe-O,3,Fe5OF11
0.4051,F-Fe-O,3,Fe5OF11
2.3386,Fe-O-P-W,4,Fe5P6WO24
2.1937999999999995,Fe-O-P-Sb,4,Fe5Sb(PO4)6
0.0,Fe-Sb,2,Fe5Sb4