eg,chemsys,nelements,formula
1.6969000000000003,Fe-K-La-O-Sb,5,KLaFeSbO6
0.0,Fe-K-La-O-Sn,5,KLaFeSnO6
0.0,Fe-K-La-O-W,5,KLaFeWO6
0.0,Bi-Ga-K-La-O,5,KLaGaBiO6
2.2343,Gd-K-La-O-Sb,5,KLaGdSbO6
2.0994999999999995,Ge-K-La-S,4,KLaGeS4
1.6220000000000003,Ge-K-La-Se,4,KLaGeSe4
2.5015,Hf-K-La-O,4,KLaHf2O6
0.0,Hf-K-La-O,4,KLaHf4O12
0.0,Cr-Hf-K-La-O,5,KLaHfCrO6
0.0,Fe-Hf-K-La-O,5,KLaHfFeO6
0.0,Hf-K-La-Nb-O,5,KLaHfNbO6
1.9904,Hf-K-La-O-Sn,5,KLaHfSnO6
2.3179000000000003,Hf-K-La-O-Ti,5,KLaHfTiO6
0.0,Bi-In-K-La-O,5,KLaInBiO6
1.1483999999999996,In-K-La-O-Sb,5,KLaInSbO6
0.0,K-La-Mg,3,KLaMg14
1.9263000000000003,K-La-Mg-O,4,KLaMg14O16
1.8067,K-La-Mg-O,4,KLaMg14O16
0.0,K-La-Mg,3,KLaMg6
1.2199,K-La-Mg-O,4,KLaMg6O8
1.7211,K-La-Mg-O,4,KLaMg6O8
2.7814999999999994,K-La-Mg-O-W,5,KLaMgWO6
2.4917,K-La-Mn-O-W,5,KLaMnWO6
1.1266000000000007,K-La-Mn-O-W,5,KLaMnWO6
3.2557000000000005,K-La-Mo-O,4,KLaMoO5
0.0,K-La-Nb-O,4,KLaNb2O6
1.4938999999999998,K-La-Nb-O,4,KLaNb2O7
1.6122999999999998,K-La-Nb-O,4,KLaNb4O12
2.0549,Cr-K-La-Nb-O,5,KLaNbCrO6
1.7117999999999998,Fe-K-La-Nb-O,5,KLaNbFeO6
2.5501000000000005,In-K-La-Nb-O,5,KLaNbInO6
0.0,K-La-Nb-Ni-O,5,KLaNbNiO6
0.4343000000000003,K-La-Nb-O-W,5,KLaNbWO6
0.0,K-La-Ni-O-Sb,5,KLaNiSbO6
2.8449,K-La-Ni-O-W,5,KLaNiWO6
3.8596,K-La-O,3,KLaO2
0.4392,K-La-O-Pd,4,KLaPdO3
2.0094,K-La-O-Pr-Sb,5,KLaPrSbO6
2.7005,K-La-S,3,KLaS2
2.6869,K-La-S-Si,4,KLaSiS4
2.8686000000000003,K-La-S-Si,4,KLaSiS4
2.2080999999999995,K-La-Se-Si,4,KLaSiSe4
0.2865000000000002,Fe-K-La-O-Sm,5,KLaSmFeO6
2.1983,K-La-O-Sb-Sm,5,KLaSmSbO6
2.2635,K-La-O-Ta,4,KLaTa2O7
1.7024,Al-K-La-O-Ta,5,KLaTaAlO6
1.9221,Bi-K-La-O-Tb,5,KLaTbBiO6
0.0,Ge-K-La-O-Tb,5,KLaTbGeO6
0.0,K-La-Ni-O-Tb,5,KLaTbNiO6
2.3726000000000003,K-La-O-Sb-Tb,5,KLaTbSbO6
1.7012999999999994,K-La-Te,3,KLaTe2
0.0,K-La-O-Ti,4,KLaTi4O12
0.0,K-La-Nb-O-Ti,5,KLaTiNbO6
2.3399000000000005,K-La-O-Ti,4,KLaTiO4
2.3468,K-La-O-Ti,4,KLaTiO4
2.6740000000000004,K-La-O-Sn-Ti,5,KLaTiSnO6
0.4331,K-La-O-V,4,KLaV4O12
0.5106000000000002,K-La-O-V-W,5,KLaVWO6
1.9899,Bi-K-La-O-Y,5,KLaYBiO6
2.1338,K-La-Nb-O-Y,5,KLaYNbO6
2.4149000000000003,K-La-O-Sb-Y,5,KLaYSbO6
2.774,K-La-O-W-Zn,5,KLaZnWO6
2.2916,K-La-O-Zr,4,KLaZr2O6
0.0,K-La-O-Zr,4,KLaZr4O12
0.0,Cr-K-La-O-Zr,5,KLaZrCrO6
0.0,Fe-K-La-O-Zr,5,KLaZrFeO6
0.0,K-La-Nb-O-Zr,5,KLaZrNbO6
2.5782,K-La-O-Sn-Zr,5,KLaZrSnO6
2.2347,K-La-O-Ti-Zr,5,KLaZrTiO6
0.0,K-La-O-V-Zr,5,KLaZrVO6
6.1328,B-H-K-Li,4,KLi(BH4)2
4.5375000000000005,C-K-Li-N,4,KLi(C2N3)2
1.0924,K-Li-O-W,4,KLi(WO3)3
0.0,K-Li-O-W,4,KLi(WO3)3
0.0,K-Li-O-W,4,KLi(WO3)4
0.0,K-Li-O-W,4,KLi(WO3)6
4.2639,H-K-Li-O,4,KLi2(HO)3
2.9467,H-K-Li-O,4,KLi2(HO)3
2.796,H-K-Li-O,4,KLi2(HO)3
0.0,K-Li-O-Ru,4,KLi2(RuO2)6
0.6878,As-K-Li,3,KLi2As
3.999,B-K-Li-O,4,KLi2BO3
0.738,Fe-K-Li-O,4,KLi2FeO3
2.1349,Fe-K-Li-O,4,KLi2FeO3
1.5869,Fe-K-Li-O,4,KLi2FeO3
2.0637000000000003,Fe-K-Li-O,4,KLi2FeO3
0.7206999999999999,K-Li-Mn-O,4,KLi2Mn2O4
3.0119,C-K-Li-Mn-O-P,6,KLi2MnPCO7
0.0007999999999999,K-Li-O,3,KLi2O3
0.0,K-Li,2,KLi3
3.9368,Ge-K-Li-O,4,KLi3GeO4
1.6930999999999998,K-Li-O-Pb,4,KLi3PbO4
4.875699999999999,K-Li-O-Si,4,KLi3SiO4
4.6824,K-Li-O-Ti,4,KLi3TiO4
1.0179,Cr-K-Li-O,4,KLi4CrO5
0.0,Fe-K-Li-O,4,KLi4FeO5
3.777,K-Li-Nb-O,4,KLi4NbO5
1.4216000000000002,Bi-K-Li-O,4,KLi6BiO6
0.0,Ir-K-Li-O,4,KLi6IrO6
4.3852,K-Li-O-Ta,4,KLi6TaO6
0.0,Al-F-K-Li-O-Si,6,KLiAl2Si4(O5F)2
6.861800000000001,Be-F-K-Li,4,KLiBeF4
4.5495,C-K-Li-O,4,KLiCO3
1.262,Co-K-Li-O,4,KLiCoO2
7.3887,Dy-F-K-Li,4,KLiDyF5
7.4694,Er-F-K-Li,4,KLiErF5
4.5921,F-Gd-K-Li,4,KLiGdF5
5.1939,H-K-Li-N-O-S,6,KLiH4S2(NO3)2
7.378,F-Ho-K-Li,4,KLiHoF5
4.4304,Cl-I-K-Li,4,KLiICl
7.4932,F-K-Li-Lu,4,KLiLuF5
0.0,K-Li-Mg,3,KLiMg14
0.1197999999999996,K-Li-Mg-O,4,KLiMg14O15
0.4694000000000002,K-Li-Mg-O,4,KLiMg14O15
1.4657,K-Li-Mg-O,4,KLiMg14O15
1.1967,K-Li-Mg-O,4,KLiMg14O15
0.0,K-Li-Mg,3,KLiMg6
0.3933,K-Li-Mg-O,4,KLiMg6O7
0.0,K-Li-Mg-O,4,KLiMg6O7
2.041,K-Li-Mn-O-Si,5,KLiMn2(SiO3)4
0.0,K-Li-Mn-O,4,KLiMnO2
1.0669999999999995,K-Li-Mn-O,4,KLiMnO2
3.4165,H-K-Li-Mn-O-P,6,KLiMnP3HO10
0.4788,C-K-Li-Mn-O-P,6,KLiMnPCO7
0.5546000000000002,K-Li-Mn-S,4,KLiMnS2
3.7393,K-Li-Mo-O,4,KLiMoO4
0.0,K-Li-Nb-O,4,KLiNb4O12
0.2082999999999999,H-K-Li-Ni-O-Se,6,KLiNi2H3(SeO5)2
0.5869000000000002,H-K-Li-Ni-O-Se,6,KLiNi2H3(SeO5)2
0.0,H-K-Li-Ni-O-Se,6,KLiNi2H3(SeO5)2
0.1939000000000001,H-K-Li-Ni-O-Se,6,KLiNi2H3(SeO5)2
0.1348000000000002,H-K-Li-Ni-O-Se,6,KLiNi2H3(SeO5)2
0.2227000000000001,H-K-Li-Ni-O-Se,6,KLiNi2H3(SeO5)2
2.5945,K-Li-Ni-O,4,KLiNiO2
1.791,K-Li-Ni-O,4,KLiNiO2
2.3803,K-Li-O,3,KLiO
0.0,K-Li-O,3,KLiO3
4.7556,F-H-K-Li-O-P,6,KLiPH2O4F
2.7753,K-Li-S,3,KLiS
3.0571,K-Li-S,3,KLiS
5.260300000000001,K-Li-O-S,4,KLiSO4
5.3221,K-Li-O-S,4,KLiSO4
5.3179,K-Li-O-S,4,KLiSO4
5.3423,K-Li-O-S,4,KLiSO4
0.2885999999999997,K-Li-O-Sb,4,KLiSb3O8
2.5249,K-Li-Se,3,KLiSe
4.7068,K-Li-O-Si,4,KLiSi2O5
2.0401,K-Li-O-Sn,4,KLiSnO2
7.3874,F-K-Li-Tb,4,KLiTbF5
2.4134,K-Li-Te,3,KLiTe
7.3809,F-K-Li-Tm,4,KLiTmF5
0.0,K-Li-O-W,4,KLiWO3
3.5783,K-Li-O-W,4,KLiWO4
7.1638,F-K-Li-Y,4,KLiYF5
1.6430000000000002,K-Li-O-Zn,4,KLiZn3O4
2.0766,K-Li-O-Zn,4,KLiZnO2
2.4361,K-Li-S-Zn,4,KLiZnS2
0.0,K-Lu,2,KLu
4.5532,C-K-Lu-O,4,KLu(CO3)2
3.9992,K-Lu-Mo-O,4,KLu(MoO4)2
3.0507,K-Lu-Mo-O,4,KLu(MoO4)2
3.2486,K-Lu-O-W,4,KLu(WO4)2
7.123200000000001,F-K-Lu,3,KLu3F10
7.475899999999999,Be-F-K-Lu,4,KLuBeF6
3.9404,K-Lu-O,3,KLuO2
0.0,K-Lu-O,3,KLuO3
2.4307,K-Lu-S,3,KLuS2
2.2807000000000004,K-Lu-O-Ta,4,KLuTa2O7
0.0758999999999998,C-K-Mg-O,4,KMg(CO5)2
0.0,C-K-Mg-O,4,KMg(CO5)2
4.9473,K-Mg-O-P,4,KMg(PO3)3
0.0,Al-K-Mg,3,KMg14Al
1.8639,Al-K-Mg-O,4,KMg14AlO16
2.1653,Al-K-Mg-O,4,KMg14AlO16
0.0,B-K-Mg,3,KMg14B
0.8123000000000005,B-K-Mg-O,4,KMg14BO15
2.4975000000000005,B-K-Mg-O,4,KMg14BO15
1.5846999999999998,B-K-Mg-O,4,KMg14BO15
1.6036,B-K-Mg-O,4,KMg14BO15
1.8494,B-K-Mg-O,4,KMg14BO16
2.5345000000000004,B-K-Mg-O,4,KMg14BO16
0.0,Bi-K-Mg,3,KMg14Bi
2.2048000000000005,Bi-K-Mg-O,4,KMg14BiO16
1.2179000000000002,Bi-K-Mg-O,4,KMg14BiO16
0.0,C-K-Mg,3,KMg14C
0.0,C-K-Mg-O,4,KMg14CO16
0.0,Cd-K-Mg,3,KMg14Cd
0.0,Co-K-Mg,3,KMg14Co
0.2000000000000001,Co-K-Mg-O,4,KMg14CoO16
0.0,Co-K-Mg-O,4,KMg14CoO16
0.0,Cr-K-Mg,3,KMg14Cr
0.2734999999999994,Cr-K-Mg-O,4,KMg14CrO16
0.0004999999999997,Cr-K-Mg-O,4,KMg14CrO16
0.0,Cu-K-Mg,3,KMg14Cu
0.0,Fe-K-Mg,3,KMg14Fe
0.4818999999999995,Fe-K-Mg-O,4,KMg14FeO16
0.0,Fe-K-Mg-O,4,KMg14FeO16
0.0,Ga-K-Mg,3,KMg14Ga
1.4006999999999996,Ga-K-Mg-O,4,KMg14GaO16
1.8608,Ga-K-Mg-O,4,KMg14GaO16
0.0,K-Mg-Mn,3,KMg14Mn
0.2550999999999996,K-Mg-Mn-O,4,KMg14MnO16
0.0,K-Mg-Mn-O,4,KMg14MnO16
0.0,K-Mg-Mo,3,KMg14Mo
0.0,K-Mg-Nb,3,KMg14Nb
0.0,K-Mg-Ni,3,KMg14Ni
0.0,K-Mg-Sb,3,KMg14Sb
0.6445999999999996,K-Mg-O-Sb,4,KMg14SbO16
1.4488000000000003,K-Mg-O-Sb,4,KMg14SbO16
0.0,K-Mg-Si,3,KMg14Si
0.0,K-Mg-O-Si,4,KMg14SiO16
0.0,K-Mg-Sn,3,KMg14Sn
0.0,K-Mg-Ti,3,KMg14Ti
0.0,K-Mg-O-Ti,4,KMg14TiO16
0.0504000000000006,K-Mg-O-Ti,4,KMg14TiO16
0.0,K-Mg-V,3,KMg14V
0.0,K-Mg-W,3,KMg14W
1.5868000000000002,K-Mg-O-W,4,KMg14WO16
1.6605,K-Mg-O-W,4,KMg14WO16
0.0,K-Mg-Zn,3,KMg14Zn
0.0,K-Mg-Zr,3,KMg14Zr
0.0,K-Mg,2,KMg15
0.0,K-Mg-O-P,4,KMg2(PO4)2
0.0,K-Mg,2,KMg3
1.1346999999999996,K-Mg-O-Si,4,KMg3(SiO3)4
0.0,Al-K-Mg-O-Si,5,KMg3Al(SiO4)3
2.9397,Al-F-Ge-K-Mg-O,6,KMg3AlGe3(O5F)2
4.199,Al-H-K-Mg-O-Si,6,KMg3AlSi3(HO6)2
4.310700000000001,Al-F-K-Mg-O-Si,6,KMg3AlSi3(O5F)2
0.0065000000000003,Al-F-K-Mg-O-Si,6,KMg3AlSi3O11F
0.7082000000000002,As-Cu-K-Mg-O,5,KMg3Cu(AsO4)3
4.0953,Ga-H-K-Mg-O-Si,6,KMg3GaSi3(HO6)2
0.0,K-Mg-O,3,KMg3O4
0.0,Al-K-Mg,3,KMg6Al
1.4715999999999996,Al-K-Mg-O,4,KMg6AlO8
1.4922000000000004,Al-K-Mg-O,4,KMg6AlO8
0.0,B-K-Mg,3,KMg6B
1.1886,B-K-Mg-O,4,KMg6BO7
2.1175,B-K-Mg-O,4,KMg6BO7
0.0,B-K-Mg-O,4,KMg6BO7
2.5778,B-K-Mg-O,4,KMg6BO8
0.0,B-K-Mg-O,4,KMg6BO8
0.0,Bi-K-Mg,3,KMg6Bi
0.4105999999999996,Bi-K-Mg-O,4,KMg6BiO8
1.1415999999999995,Bi-K-Mg-O,4,KMg6BiO8
0.0,C-K-Mg,3,KMg6C
0.0,C-K-Mg-O,4,KMg6CO8
0.0,Cd-K-Mg,3,KMg6Cd
0.0,Co-K-Mg,3,KMg6Co
0.0,Co-K-Mg-O,4,KMg6CoO8
0.0,Cr-K-Mg,3,KMg6Cr
0.0,Cr-K-Mg-O,4,KMg6CrO8
0.0,Cu-K-Mg,3,KMg6Cu
0.0,Fe-K-Mg,3,KMg6Fe
9.999999999976694e-05,Fe-K-Mg-O,4,KMg6FeO8
0.0473999999999996,Fe-K-Mg-O,4,KMg6FeO8
0.0,Ga-K-Mg,3,KMg6Ga
0.4012000000000002,Ga-K-Mg-O,4,KMg6GaO8
1.1688999999999998,Ga-K-Mg-O,4,KMg6GaO8
0.0,K-Mg-Mn,3,KMg6Mn
0.0,K-Mg-Mn-O,4,KMg6MnO8
0.0,K-Mg-Mo,3,KMg6Mo
0.0,K-Mg-Nb,3,KMg6Nb
0.0,K-Mg-Ni,3,KMg6Ni
0.0,K-Mg-Sb,3,KMg6Sb
0.0,K-Mg-O-Sb,4,KMg6SbO8
0.6850000000000005,K-Mg-O-Sb,4,KMg6SbO8
0.0,K-Mg-Si,3,KMg6Si
0.0,K-Mg-O-Si,4,KMg6SiO8
0.0,K-Mg-Sn,3,KMg6Sn
0.0,K-Mg-Ti,3,KMg6Ti
0.0,K-Mg-O-Ti,4,KMg6TiO8
0.0,K-Mg-V,3,KMg6V
0.0,K-Mg-W,3,KMg6W
0.8571,K-Mg-O-W,4,KMg6WO8
1.0774999999999997,K-Mg-O-W,4,KMg6WO8
0.0,K-Mg-Zn,3,KMg6Zn
0.0,K-Mg-Zr,3,KMg6Zr
0.0,K-Mg,2,KMg7
1.9403,Ag-K-Mg-S-Sb,5,KMgAg2SbS4
0.8975,Ag-K-Mg-S-Sb,5,KMgAg2SbS4
1.4894000000000005,Ag-K-Mg-S-Sb,5,KMgAg2SbS4
0.2025999999999999,Al-K-Mg-Mo-O,5,KMgAl(MoO4)2
1.1621,As-K-Mg,3,KMgAs
4.6163,B-K-Mg-O,4,KMgBO3
0.3854999999999999,Bi-K-Mg,3,KMgBi
1.2568,Bi-K-Mg-O,4,KMgBiO3
0.0,Bi-K-Mg-O,4,KMgBiO3
4.4851,Cl-K-Mg,3,KMgCl3
0.9408,Co-K-Mg-Mo-O,5,KMgCo2(MoO5)2
0.8087,Cr-Fe-K-Mg-O,5,KMgCr2FeO8
6.9537,F-K-Mg,3,KMgF3
2.1744,Fe-K-Mg-O-P,5,KMgFe(PO4)2
0.0,Fe-K-Mg-O-S,5,KMgFe(SO4)2
0.2540999999999997,Fe-K-Mg-O-S,5,KMgFe(SO4)2
0.8211,C-H-K-Mg-O,5,KMgH(CO5)2
0.0,H-K-Mg,3,KMgH3
2.458,H-K-Mg,3,KMgH3
0.0026999999999999,H-K-Mg-O-S,5,KMgH5(SO5)2
3.5252,H-K-Mg-O-Se,5,KMgH5(SeO5)2
5.0253000000000005,C-H-K-Mg-O,5,KMgH9(CO5)2
0.1589000000000002,K-Mg-Mn-Mo-O,5,KMgMn2(MoO5)2
0.6088999999999998,K-Mg-Mn-Mo-O,5,KMgMn2(MoO5)2
1.9956,Al-F-Ge-K-Mg-Mn-O,7,KMgMn2AlGe3(O5F)2
0.3294999999999999,Cr-K-Mg-Mn-O,5,KMgMn2Cr2O10
1.3453000000000004,K-Mg-Mn-O,4,KMgMn2O4
0.1791999999999998,K-Mg-Mn-O,4,KMgMn4O8
0.0,K-Mg-Mn-O,4,KMgMn4O8
0.3243,K-Mg-Mn-O,4,KMgMn4O8
0.0,K-Mg-Mn-O,4,KMgMnO2
0.4870000000000001,K-Mg-Mo-O,4,KMgMoO3
0.4210000000000002,K-Mg-Mo-O,4,KMgMoO3
0.1956,K-Mg-N,3,KMgN
0.6679999999999997,K-Mg-N,3,KMgN
0.0,K-Mg-Nb-O,4,KMgNbO3
1.5147,K-Mg-Nb-O,4,KMgNbO3
1.9805,H-K-Mg-Ni-O-Se,6,KMgNi2H3(SeO5)2
1.6715000000000002,H-K-Mg-Ni-O-Se,6,KMgNi2H3(SeO5)2
1.869,H-K-Mg-Ni-O-Se,6,KMgNi2H3(SeO5)2
1.1218000000000004,H-K-Mg-Ni-O-Se,6,KMgNi2H3(SeO5)2
0.0,H-K-Mg-Ni-O-Se,6,KMgNi2H3(SeO5)2
2.1946000000000003,I-K-Mg-Ni-O,5,KMgNiIO6
2.3441,I-K-Mg-Ni-O,5,KMgNiIO6
0.5975000000000001,I-K-Mg-Ni-O,5,KMgNiIO6
0.0,K-Mg-O,3,KMgO3
1.6589,K-Mg-P,3,KMgP
4.7532,H-K-Mg-O-P,5,KMgP(H6O5)2
0.3128999999999999,K-Mg-O-P,4,KMgPO5
0.0,K-Mg-O-Ru,4,KMgRuO3
1.2672,K-Mg-Sb,3,KMgSb
3.7352,K-Mg-O-P-Sb,5,KMgSb(PO4)2
3.6885,K-Mg-O-P-Sb,5,KMgSb(PO4)2
3.871,K-Mg-O-P-Sb,5,KMgSb(PO4)2
0.0123000000000002,K-Mg-Mo-O-Sc,5,KMgSc(MoO4)2
0.0,K-Mg-Mo-O-Sc,5,KMgSc(MoO4)2
0.0,C-K-Mn-N,4,KMn(CN)3
4.0551,K-Mn-O-P,4,KMn(PO3)3
0.0370999999999999,K-Mn-O-Se,4,KMn(SeO4)2
0.0,K-Mn-Mo-O,4,KMn2(MoO5)2
0.0,Cr-K-Mn-O,4,KMn2Cr2O10
0.0,K-Mn-O,3,KMn2O4
0.8501999999999998,K-Mn-O,3,KMn2O4
0.7007000000000001,H-K-Mn-O-P,5,KMn2P2HO9
0.2427999999999999,H-K-Mn-O-P,5,KMn2P2HO9
0.1931,K-Mn-O,3,KMn4O8
0.0,K-Mn-O,3,KMn4O8
0.0183999999999999,K-Mn-O,3,KMn4O8
0.0,K-Mn-O,3,KMn6O12
0.0,K-Mn-O,3,KMn8O16
1.544,Ag-C-K-Mn-N,5,KMnAg3(CN)6
0.0,As-K-Mn,3,KMnAs
0.0,Bi-K-Mn,3,KMnBi
0.0,Bi-K-Mn-O-W,5,KMnBiWO6
0.0,Cl-K-Mn,3,KMnCl
0.0,Cl-K-Mn,3,KMnCl3
0.0,Cl-K-Mn-O,4,KMnCl3O2
0.5017999999999998,Cl-K-Mn-O,4,KMnCl3O2
0.0597999999999996,Cu-K-Mn-Se,4,KMnCu3Se4
1.7405,F-K-Mn,3,KMnF3
3.4193,F-K-Mn,3,KMnF3
2.4058,F-K-Mn,3,KMnF3
2.6564,F-K-Mn,3,KMnF3
2.7802,F-K-Mn,3,KMnF3
2.7828,F-K-Mn,3,KMnF3
2.8989000000000003,F-K-Mn,3,KMnF3
2.6892,F-K-Mn,3,KMnF3
2.1486,F-K-Mn,3,KMnF4
0.2816,C-H-K-Mn-N,5,KMnH24(C7N4)2
0.0,F-H-K-Mn-O,5,KMnH2OF4
3.2756,C-H-K-Mn-O,5,KMnH3(CO2)3
1.1807,Cl-H-K-Mn-O,5,KMnH4Cl3O2
0.3491999999999999,Cl-H-K-Mn-O,5,KMnH4Cl3O2
4.369800000000001,H-K-Mn-O-S,5,KMnH5(SO5)2
0.7805,H-K-Mn-O-S,5,KMnH5(SO5)2
1.9674,I-K-Mn-O,4,KMnIO6
0.0,K-Mn-N,3,KMnN
1.7098999999999998,K-Mn-O,3,KMnO2
1.4647,K-Mn-O,3,KMnO2
0.9667,K-Mn-O,3,KMnO2
1.4207,K-Mn-O,3,KMnO2
1.573,K-Mn-O,3,KMnO2
0.0,K-Mn-O,3,KMnO2
0.1647,K-Mn-O,3,KMnO2
0.0,K-Mn-O,3,KMnO3
1.6493,K-Mn-O,3,KMnO4
2.0563,K-Mn-O,3,KMnO4
0.0,K-Mn-P,3,KMnP
0.4814,C-K-Mn-O-P,5,KMnPCO7
3.1331,H-K-Mn-O-P,5,KMnPH2O5
1.3002000000000002,K-Mn-O-P,4,KMnPO4
0.0,K-Mn-Ru,3,KMnRu
0.0,K-Mn-Sb,3,KMnSb
0.0,K-Mn-Se,3,KMnSe2
0.0731999999999999,K-Mn-O-Sn,4,KMnSn3O8
0.8738999999999999,K-Mn-O-Sn,4,KMnSn3O8
0.7946999999999997,K-Mn-O-Sn,4,KMnSn3O8
0.0,K-Mn-Te,3,KMnTe2
1.1436000000000002,K-Mo-O-P,4,KMo2(P2O7)2
3.2635,F-H-K-Mo-N,5,KMoH8(NF3)2
0.0,K-Mo-O,3,KMoO3
0.6681999999999999,K-Mo-O,3,KMoO4
2.0279000000000003,Cl-K-Mo-O-P,5,KMoPClO5
0.0,K-Mo-Ru,3,KMoRu2
0.0,K-N,2,KN
0.0,K-N,2,KN2
1.0346000000000002,K-N,2,KN2
0.0,K-N,2,KN3
3.9394,K-N,2,KN3
2.8552,K-N-O,3,KN3O4
2.4943,K-N-O,3,KNO2
2.3232,K-N-O,3,KNO2
2.5157,K-N-O,3,KNO2
2.4085,K-N-O,3,KNO2
2.8988,K-N-O,3,KNO3
3.1418,K-N-O,3,KNO3
2.8553,K-N-O,3,KNO3
2.9765,K-N-O,3,KNO3
2.9384,K-N-O,3,KNO3
3.2301,K-N-O,3,KNO3
3.0984,K-N-O,3,KNO3
3.047,K-N-O,3,KNO3
2.9813,K-N-O,3,KNO3
3.2872,K-N-O,3,KNO3
3.2687,F-K-N-O,4,KNOF2
6.352399999999999,B-H-K-Na,4,KNa(BH4)2
6.1608,B-H-K-Na,4,KNa(BH4)2
6.394,B-H-K-Na,4,KNa(BH4)2
6.187,B-H-K-Na,4,KNa(BH4)2
0.0,Bi-K-Na-O,4,KNa(BiO3)2
0.0046000000000001,Bi-K-Na-O,4,KNa(BiO3)4
0.0,K-Mo-Na-O,4,KNa(MoO3)2
0.0,K-Na-O-Sb,4,KNa(SbO3)4
0.0,K-Na-O-W,4,KNa(WO3)2
0.0,K-Na-O-W,4,KNa(WO3)4
5.0585,K-Na-O-P,4,KNa2(PO3)3
5.1973,Al-F-K-Na,4,KNa2AlF6
2.509,Al-H-K-Na,4,KNa2AlH6
2.0222,Al-H-K-Na,4,KNa2AlH6
1.3404,Al-H-K-Na,4,KNa2AlH6
3.0404,As-F-K-Na,4,KNa2AsF6
2.0479,Au-K-Na-O,4,KNa2AuO2
1.8181,B-K-N-Na,4,KNa2BN2
2.7985,B-K-Na-O,4,KNa2BO3
0.0,Bi-K-Na,3,KNa2Bi
3.2242,Co-F-K-Na,4,KNa2CoF6
3.7636,Cr-F-K-Na,4,KNa2CrF6
1.5144,Cu-K-Na-O,4,KNa2CuO2
4.1152,F-Fe-K-Na,4,KNa2FeF6
0.5024,Fe-K-Na-O,4,KNa2FeO3
4.9498,F-Ga-K-Na,4,KNa2GaF6
2.5055,Ga-K-Na-O,4,KNa2GaO3
1.4972,F-Ir-K-Na,4,KNa2IrF6
0.0,F-K-Mn-Na,4,KNa2MnF6
2.0919,F-K-Mo-Na,4,KNa2MoF6
0.0,F-K-Na-Nb,4,KNa2NbF6
0.0,K-Na-Ni-O,4,KNa2NiO2
1.5423999999999998,K-Na-Ni-O,4,KNa2NiO2
0.0,F-K-Na-Pd,4,KNa2PdF6
2.23,F-K-Na-Rh,4,KNa2RhF6
0.0,F-K-Na-Ru,4,KNa2RuF6
0.6720999999999999,K-Na-Sb,3,KNa2Sb
2.6543,F-K-Na-Sb,4,KNa2SbF6
5.0397,F-K-Na-Sc,4,KNa2ScF6
0.0,F-K-Na-Ta,4,KNa2TaF6
0.0,F-K-Na-Ti,4,KNa2TiF6
2.9379,H-K-Na,3,KNa3H4
6.57,F-K-Mg-Na,4,KNa3Mg4F12
0.5564,K-Mo-Na-O-V,5,KNa3V2(MoO6)2
3.5954,K-Na-O-W,4,KNa3WO5
4.5875,Cl-K-Na,3,KNa4Cl5
4.9206,Cl-K-Na,3,KNa4Cl5
4.9249,Cl-K-Na,3,KNa4Cl5
4.9686,Cl-K-Na,3,KNa4Cl5
0.9867,K-Na-O-Te,4,KNa5TeO6
0.0,K-Mo-Na-O-V,5,KNa7V6(MoO12)2
0.0,Cr-K-Na-O-V,5,KNa7V6Cr2O24
0.0,Cr-K-Na-O-V,5,KNa7V7CrO24
0.0,K-Mo-Na-O-V,5,KNa7V7MoO24
0.2248999999999998,K-Na-O-V,4,KNa7V8O24
0.8687,Ca-Co-K-Na-O-Si,6,KNaCaCo5(SiO3)8
0.0007000000000001,Ca-K-Mg-Na-O-Si,6,KNaCaMg5(SiO3)8
4.6631,Ca-F-K-Mg-Na-O-Si,7,KNaCaMg5Si8(O11F)2
0.4603000000000001,Ca-K-Na-Ni-O-Si,6,KNaCaSi8Ni5O24
4.9632000000000005,Cl-K-Na,3,KNaCl2
0.6036999999999999,Cu-K-Na-O-Si,5,KNaCu(Si2O5)2
0.0,Eu-K-Na-Nb-O,5,KNaEuNbO5
0.0184999999999999,Eu-K-Na-O-Ta,5,KNaEuTaO5
2.9975,Fe-K-Na-O-Si,5,KNaFe(Si2O5)2
2.7742,Gd-K-Na-Nb-O,5,KNaGdNbO5
2.6982,Gd-K-Na-O-Ta,5,KNaGdTaO5
3.0403,Ge-K-Na-O,4,KNaGeO3
2.8277,H-K-Na,3,KNaH2
4.0097000000000005,Cl-I-K-Na,4,KNaICl
3.638700000000001,K-La-Na-Nb-O,5,KNaLaNbO5
3.7151,K-La-Na-O-Ta,5,KNaLaTaO5
0.0,K-Mg-Na,3,KNaMg14
0.4420999999999999,K-Mg-Na-O,4,KNaMg14O15
1.3543000000000005,K-Mg-Na-O,4,KNaMg14O15
0.0,K-Mg-Na-O,4,KNaMg14O15
1.4495000000000005,K-Mg-Na-O,4,KNaMg14O15
6.286899999999999,F-K-Mg-Na,4,KNaMg2F6
6.3905,F-K-Mg-Na,4,KNaMg2F6
5.2111,F-K-Mg-Na-O-Si,6,KNaMg2Si4(O5F)2
0.0,K-Mg-Na,3,KNaMg6
0.0,K-Mg-Na-O,4,KNaMg6O7
0.4468000000000001,K-Mg-Na-O,4,KNaMg6O7
3.0188000000000006,K-Mn-Na-O-Si,5,KNaMn(Si2O5)2
0.2744999999999997,K-Mn-Na-O,4,KNaMnO2
2.2299,F-K-Mo-Na-O,5,KNaMo(OF2)2
1.9821,K-Na-Nb-O,4,KNaNb2O6
0.0,K-Na-Nb-O,4,KNaNb4O12
4.274,F-K-Na-Nb-O,5,KNaNbOF5
3.4434,K-Na-Nb-Nd-O,5,KNaNdNbO5
3.5147,K-Na-Nd-O-Ta,5,KNaNdTaO5
2.1322,K-Na-O,3,KNaO
0.0,K-Na-O,3,KNaO3
3.4049,K-Na-Nb-O-Pr,5,KNaPrNbO5
3.4578999999999995,K-Na-O-Pr-Ta,5,KNaPrTaO5
5.4451,H-K-Na-Re,4,KNaReH9
2.4851,K-Na-S,3,KNaS
5.2338000000000005,K-Na-O-S,4,KNaS2O7
5.0709,K-Na-O-S,4,KNaSO4
4.9724,K-Na-O-S,4,KNaSO4
0.0,K-Na-Sb,3,KNaSb
2.0636,K-Na-Se,3,KNaSe
2.0175,K-Na-Se,3,KNaSe
3.4945,K-Na-Nb-O-Sm,5,KNaSmNbO5
3.6034000000000006,K-Na-O-Sm-Ta,5,KNaSmTaO5
3.7852,B-K-Na-O-Sr,5,KNaSr8(BO3)6
3.3546,K-Mg-Na-O-Si-Sr,6,KNaSrMg5(SiO3)8
1.9491,K-Na-Te,3,KNaTe
4.0913,H-K-Na-O-Te,5,KNaTe(HO)6
6.5711,F-K-Na-Th,4,KNaThF6
2.3362000000000003,Bi-K-Na-O-Ti,5,KNaTi4(BiO6)2
2.432,Bi-K-Na-O-Ti,5,KNaTi4(BiO6)2
2.4827,K-Na-O-P-Ti,5,KNaTi4(PO4)6
3.542,K-Na-O-Ti,4,KNaTiO3
2.9290000000000003,K-Na-O-V,4,KNaV2O6
0.0,K-Na-O-V,4,KNaV4O12
3.1664,F-K-Na-O-W,5,KNaW(OF2)2
1.7792,K-Na-O-Zn,4,KNaZnO2
2.6594,Be-K-Na-O-P-Zr,6,KNaZr2Be(PO4)4
3.1131,B-K-Nb-O,4,KNb(BO3)2
1.7079000000000004,Cu-K-Nb-S,4,KNb(CuS2)2
1.4228,Cu-K-Nb-Se,4,KNb(CuSe2)2
0.0,In-K-Nb-O,4,KNb2InO6
0.0,K-Nb-Se,3,KNb2Se
0.0,F-K-Nb,3,KNb3F9
2.4752,K-Nb-O,3,KNb3O8
2.6414,Bi-K-Nb-O,4,KNb4Bi5O18
1.7758,In-K-Nb-O,4,KNb4InO12
0.0,F-K-Nb-O,4,KNb4O5F
2.2276,Cl-K-Nb,3,KNbCl6
5.1164,F-K-Nb,3,KNbF6
5.1345,F-K-Nb,3,KNbF6
0.0,F-K-Nb-O,4,KNbO2F
1.4759999999999998,K-Nb-O,3,KNbO3
2.0585,K-Nb-O,3,KNbO3
2.2934,K-Nb-O,3,KNbO3
1.4120999999999997,K-Nb-O,3,KNbO3
0.4433,C-K-Nb-O-P,5,KNbPCO7
0.8120000000000003,K-Nb-S,3,KNbS2
0.6854999999999993,K-Nb-Se,3,KNbSe2
3.0355000000000003,K-Nb-O-W,4,KNbWO6
2.9797,K-Nb-O-W,4,KNbWO6
0.7202000000000001,K-Nb-O-W,4,KNbWO7
0.0,K-Nd,2,KNd
0.0,Fe-K-Nd-O,4,KNd(FeO3)4
3.3362000000000003,K-Mo-Nd-O,4,KNd(MoO4)2
0.0,K-Nd-Ni-O,4,KNd(NiO3)4
5.356,K-Nd-O-P,4,KNd(PO3)4
5.3535,K-Nd-O-P,4,KNd(PO3)4
5.3574,K-Nd-O-S,4,KNd(SO4)2
1.1914999999999996,K-Nd-O-Sn,4,KNd(SnO3)2
0.0,K-Nd-O-Sn,4,KNd(SnO3)4
3.8022,K-Nd-O-W,4,KNd(WO4)2
0.9129,Cu-K-Nd-S,4,KNd2CuS4
3.6157,K-Nb-Nd-O,4,KNd2NbO6
0.0,K-Nd,2,KNd3
3.1776,Dy-K-Nd-O-Sb,5,KNdDySbO6
0.5143000000000004,Eu-K-Nd-O-W,5,KNdEuWO6
7.126,F-K-Nd,3,KNdF4
0.4222000000000001,Bi-Fe-K-Nd-O,5,KNdFeBiO6
0.0,Fe-K-Nd-O-Sn,5,KNdFeSnO6
2.3671,Ge-K-Nd-S,4,KNdGeS4
2.7817,Hf-K-Nd-O,4,KNdHf2O6
0.0,Hf-K-Nd-O,4,KNdHf4O12
3.3158,Hf-K-Nd-O-Sn,5,KNdHfSnO6
2.2033,Hf-K-Nd-O-Ti,5,KNdHfTiO6
2.6382000000000003,Hf-K-Nd-O-Zr,5,KNdHfZrO6
1.2359,In-K-Nd-O-Sb,5,KNdInSbO6
0.0,K-Mn-Nd-O,4,KNdMn4O12
2.6477,K-Mn-Nd-O-W,5,KNdMnWO6
0.0,K-Nb-Nd-O,4,KNdNb2O6
1.5341,K-Nb-Nd-O,4,KNdNb4O12
2.99,In-K-Nb-Nd-O,5,KNdNbInO6
3.7088,K-Nd-O,3,KNdO2
3.8089,K-Nd-O,3,KNdO2
0.6506000000000003,K-Nd-O-Pd,4,KNdPdO3
2.2595,K-Nd-S,3,KNdS2
2.2540000000000004,K-Nd-O-Sn-W,5,KNdSnWO6
2.0177,K-Nd-O-Sn-W,5,KNdSnWO6
1.2648,K-Nd-Te,3,KNdTe2
0.1570999999999998,K-Nd-Te,3,KNdTe4
0.0,K-Nd-O-Ti,4,KNdTi4O12
2.3607,K-Nd-O-Ti,4,KNdTiO4
2.8321000000000005,K-Nd-O-Sn-Ti,5,KNdTiSnO6
0.3822999999999998,K-Nd-O-V,4,KNdV4O12
3.1408,K-Nd-O-Sb-Y,5,KNdYSbO6
2.511,K-Nd-O-Zr,4,KNdZr2O6
0.0,K-Nd-O-Zr,4,KNdZr4O12
0.0,Fe-K-Nd-O-Zr,5,KNdZrFeO6
3.2514000000000003,Ge-K-Nd-O-Zr,5,KNdZrGeO6
0.0,K-Nb-Nd-O-Zr,5,KNdZrNbO6
3.1768,K-Nd-O-Sn-Zr,5,KNdZrSnO6
2.1104000000000003,K-Nd-O-Ti-Zr,5,KNdZrTiO6
0.173,Br-K-Ni-O,4,KNi(BrO2)3
2.6967,H-K-Ni-O-Se,5,KNi2H3(SeO5)2
0.0,As-K-Ni-O,4,KNiAsO4
1.3453,Au-C-K-N-Ni,5,KNiAu3(CN)6
1.3429000000000002,Bi-K-Ni-O-W,5,KNiBiWO6
0.0,F-K-Ni,3,KNiF3
0.0,C-H-K-Ni-O,5,KNiH9(CO5)2
1.7517999999999998,I-K-Ni-O,4,KNiIO6
0.2126999999999999,K-N-Ni,3,KNiN
0.0,K-N-Ni,3,KNiN
4.0044,H-K-Ni-O-P,5,KNiPH2O5
0.2871999999999999,K-Ni-O-P,4,KNiPO10
2.909,K-Ni-O-P,4,KNiPO4
1.7597000000000005,K-Ni-O-Sb,4,KNiSbO4
0.0,K-Ni-O-Te,4,KNiTeO6
0.0,C-K-Np-O,4,KNp(CO3)2
0.0,Ag-K-Np-S,4,KNpAgS3
0.0,Cu-K-Np-S,4,KNpCuS3
0.0981999999999999,K-N-Np-O,4,KNpN3O11
0.0,K-Np-O,3,KNpO3
0.4978000000000002,K-O,2,KO2
0.0,K-O,2,KO2
0.1547,K-O,2,KO2
0.0,F-K-O,3,KO2F
0.6496,K-O,2,KO3
0.5808,K-O,2,KO3
0.0,Br-K-N-O-Os,5,KOsBr4NO2
1.3498,F-K-Os,3,KOsF6
0.0,Cl-K-N-O-Os,5,KOsN(Cl2O)2
2.6059,K-N-O-Os,4,KOsNO3
0.9869,F-K-N-O-Os,5,KOsNOF5
0.0,K-O-Os,3,KOsO3
0.0,K-P,2,KP
1.0349999999999997,K-P,2,KP
5.1321,H-K-O-P,4,KP(HO)2
1.4875999999999998,H-K-O-P,4,KP(HO)4
5.4908,H-K-O-P,4,KP(HO2)2
5.2639,H-K-O-P,4,KP(HO2)2
5.5939000000000005,H-K-O-P,4,KP(HO2)2
5.4325,H-K-O-P,4,KP(HO2)2
5.363,H-K-O-P,4,KP(HO2)2
5.2175,H-K-O-P,4,KP(HO2)2
4.919,H-K-O-P,4,KP(HO2)2
5.333,H-K-O-P,4,KP(HO2)2
5.7515,H-K-O-P,4,KP(HO2)2
4.8366,H-K-O-P,4,KP(HO2)2
5.2365,F-K-O-P,4,KP(OF)2
0.0,K-O-P-W,4,KP2(W3O11)2
0.0,K-N-O-P,4,KP2NO8
0.0,K-N-O-P,4,KP4N3O16
0.9936999999999998,Au-K-P-Se,4,KPAuSe3
7.2209,F-K-P,3,KPF6
7.0368,F-K-P,3,KPF6
7.117799999999999,F-K-P,3,KPF6
4.5259,H-K-O-P-S,5,KPH2SO3