eg,chemsys,nelements,formula
4.8337,H-K-N-O-P,5,KPH3NO3
6.6429,F-H-K-O-P,5,KPH3O3F
5.727499999999999,F-H-K-O-P,5,KPH3O4F
5.7538,F-H-K-O-P,5,KPH3O4F
3.4045,C-H-K-N-O-P-S,7,KPH5C2S2(NO)3
3.7596,C-H-K-N-O-P-S,7,KPH5C2SN3O4
5.2859,C-H-K-N-O-P,6,KPH6C2(NO)4
5.2353000000000005,H-K-N-O-P,5,KPHNO2
3.3136,K-O-P,3,KPO3
4.821199999999999,K-O-P,3,KPO3
0.7652000000000001,K-O-P,3,KPO3
0.0,K-O-P,3,KPO4
0.0114999999999998,K-O-P,3,KPO4
1.7149,K-P-S,3,KPS3
2.8067,C-K-O-P-W,5,KPWCO7
3.0477,K-O-Pa,3,KPaO3
0.0,K-Pb,2,KPb2
3.0942,C-F-K-O-Pb,5,KPb2C2O6F
0.0,K-Pb,2,KPb3
1.6397,Br-K-O-Pb,4,KPbBr3O
1.29,K-N-Pb,3,KPbN
0.4906000000000001,K-N-Pb,3,KPbN
0.9055,K-N-Pb,3,KPbN
0.7249999999999996,K-O-Pb,3,KPbO2
0.0,K-O-Pb,3,KPbO3
0.0,F-K-Pd,3,KPd2F5
0.2648000000000001,K-O-Pd,3,KPd2O3
0.0,F-K-Pd,3,KPdF3
0.2564000000000002,K-N-Pd,3,KPdN
0.0,K-N-Pd,3,KPdN
0.8369,K-N-Pd,3,KPdN
0.0,K-O-Pd,3,KPdO3
0.0,K-Pm,2,KPm
0.0,K-Pm,2,KPm3
1.3687,Cl-K-O-Pr,4,KPr(ClO)4
0.0,Fe-K-O-Pr,4,KPr(FeO3)4
3.3437999999999994,K-Mo-O-Pr,4,KPr(MoO4)2
0.0,K-Ni-O-Pr,4,KPr(NiO3)4
5.422700000000001,K-O-P-Pr,4,KPr(PO3)4
5.3491,K-O-P-Pr,4,KPr(PO3)4
5.5778,K-O-Pr-S,4,KPr(SO4)2
1.1534000000000004,K-O-Pr-Sn,4,KPr(SnO3)2
0.0,K-O-Pr-Sn,4,KPr(SnO3)4
3.8769,K-O-Pr-W,4,KPr(WO4)2
0.0,K-Pr,2,KPr3
0.0,Al-Bi-K-O-Pr,5,KPrAlBiO6
0.0,Cr-K-O-Pr-W,5,KPrCrWO6
0.2710000000000003,Dy-Fe-K-O-Pr,5,KPrDyFeO6
0.0,Dy-Ge-K-O-Pr,5,KPrDyGeO6
2.4221,Dy-K-Nb-O-Pr,5,KPrDyNbO6
3.232800000000001,Dy-K-O-Pr-Sb,5,KPrDySbO6
0.0,Eu-K-O-Pr-Sb,5,KPrEuSbO6
0.5705999999999998,Eu-K-O-Pr-W,5,KPrEuWO6
7.1334,F-K-Pr,3,KPrF4
0.3772000000000002,Bi-Fe-K-O-Pr,5,KPrFeBiO6
0.0783,Fe-Gd-K-O-Pr,5,KPrGdFeO6
0.0,Gd-Ge-K-O-Pr,5,KPrGdGeO6
1.6332,Ge-K-Pr-Se,4,KPrGeSe4
2.8145999999999995,Hf-K-O-Pr,4,KPrHf2O6
0.0,Hf-K-O-Pr,4,KPrHf4O12
0.0,Hf-In-K-O-Pr,5,KPrHfInO6
3.3667,Hf-K-O-Pr-Sn,5,KPrHfSnO6
0.0,Hf-K-O-Pr-W,5,KPrHfWO6
2.6627,Hf-K-O-Pr-Zr,5,KPrHfZrO6
1.1906,In-K-O-Pr-Sb,5,KPrInSbO6
0.0,Bi-K-Mg-O-Pr,5,KPrMgBiO6
2.9739,K-Mg-O-Pr-W,5,KPrMgWO6
0.0,Bi-K-Mn-O-Pr,5,KPrMnBiO6
0.0,K-Mn-Nb-O-Pr,5,KPrMnNbO6
1.3222999999999998,K-Mn-O-Pr-W,5,KPrMnWO6
1.6235,K-Nb-O-Pr,4,KPrNb4O12
3.018,In-K-Nb-O-Pr,5,KPrNbInO6
3.1021,K-Ni-O-Pr-W,5,KPrNiWO6
3.6626,K-O-Pr,3,KPrO2
0.1098999999999998,C-K-O-P-Pr,5,KPrPCO7
0.5977999999999999,K-O-Pd-Pr,4,KPrPdO3
2.2688,K-Pr-S,3,KPrS2
2.1773,K-Pr-Se-Si,4,KPrSiSe4
3.0569,K-O-Pr-Sb-Sm,5,KPrSmSbO6
1.2799999999999998,K-Pr-Te,3,KPrTe2
0.1762999999999994,K-Pr-Te,3,KPrTe4
0.0,K-O-Pr-Ti,4,KPrTi4O12
0.4873,K-O-Pr-V,4,KPrV4O12
0.4008000000000002,K-O-Pr-V-W,5,KPrVWO6
0.2740999999999998,Fe-K-O-Pr-Y,5,KPrYFeO6
2.4244000000000003,K-Nb-O-Pr-Y,5,KPrYNbO6
3.2201000000000004,K-O-Pr-Sb-Y,5,KPrYSbO6
3.106,K-O-Pr-W-Zn,5,KPrZnWO6
2.535,K-O-Pr-Zr,4,KPrZr2O6
0.0,K-O-Pr-Zr,4,KPrZr4O12
0.0,K-Nb-O-Pr-Zr,5,KPrZrNbO6
0.0,K-Pt,2,KPt
1.2738999999999998,K-Pt-S,3,KPt2S3
0.9439000000000002,K-Pt-Se,3,KPt2Se3
0.0,K-Pt,2,KPt3
0.0,K-O-Pt,3,KPt3O4
0.0015999999999999,Br-K-N-Pt,4,KPtBr3N
0.0,K-N-Pt,3,KPtN
0.0,Cl-K-N-Pt,4,KPtNCl3
0.0,Cl-K-N-O-Pt,5,KPtNCl3O
0.0,K-O-Pt,3,KPtO3
0.0,K-O-Pt-S,4,KPtS2O9
0.4342999999999999,C-K-O-Pu,4,KPuCO5
0.0,K-O-Pu,3,KPuO3
0.0,Fe-K-Rb-S,4,KRb(Fe2S3)2
0.0,Au-In-K-Rb,4,KRb(InAu2)4
3.283,Al-Br-K-Rb,4,KRb2AlBr6
4.6491,Al-Cl-K-Rb,4,KRb2AlCl6
6.4284,Al-F-K-Rb,4,KRb2AlF6
1.7559,Al-I-K-Rb,4,KRb2AlI6
3.0145,As-Br-K-Rb,4,KRb2AsBr6
3.4879,As-Cl-K-Rb,4,KRb2AsCl6
4.5539000000000005,As-F-K-Rb,4,KRb2AsF6
2.0398,As-I-K-Rb,4,KRb2AsI6
0.0,Au-Br-K-Rb,4,KRb2AuBr6
0.2445,Au-Cl-K-Rb,4,KRb2AuCl6
0.7444000000000001,Au-F-K-Rb,4,KRb2AuF6
4.7967,Bi-F-K-Rb,4,KRb2BiF6
3.647,C-F-K-O-Rb,5,KRb2CO3F
0.0,Co-F-K-Rb,4,KRb2CoF6
4.1253,Cr-F-K-Rb,4,KRb2CrF6
0.8802000000000001,Cu-F-K-Rb,4,KRb2CuF6
4.8552,Cl-Dy-K-Rb,4,KRb2DyCl6
4.8731,Cl-Er-K-Rb,4,KRb2ErCl6
0.0,Cl-Eu-K-Rb,4,KRb2EuCl6
4.140000000000001,F-Fe-K-Rb,4,KRb2FeF6
2.1466000000000003,Br-Ga-K-Rb,4,KRb2GaBr6
3.3948,Cl-Ga-K-Rb,4,KRb2GaCl6
5.8894,F-Ga-K-Rb,4,KRb2GaF6
0.8478999999999999,Ga-I-K-Rb,4,KRb2GaI6
3.253,Cl-Gd-K-Rb,4,KRb2GdCl6
2.3963,Br-In-K-Rb,4,KRb2InBr6
3.5425000000000004,Cl-In-K-Rb,4,KRb2InCl6
5.3194,F-In-K-Rb,4,KRb2InF6
5.364599999999999,F-In-K-Rb,4,KRb2InF6
5.5594,F-In-K-Rb,4,KRb2InF6
2.5351,F-Ir-K-Rb,4,KRb2IrF6
4.7565,Cl-K-La-Rb,4,KRb2LaCl6
4.9104,Cl-K-Lu-Rb,4,KRb2LuCl6
0.0,F-K-Mn-Rb,4,KRb2MnF6
1.7047,F-K-Mn-Rb,4,KRb2MnF6
2.7955,F-K-Mo-O-Rb,5,KRb2Mo(OF)3
3.4493,F-K-Mo-O-Rb,5,KRb2Mo(OF)3
3.6262,F-K-Mo-Rb,4,KRb2MoF6
0.0,F-K-Nb-Rb,4,KRb2NbF6
0.0,F-K-Ni-Rb,4,KRb2NiF6
0.0,F-K-Pd-Rb,4,KRb2PdF6
0.5057,F-K-Pd-Rb,4,KRb2PdF6
2.1662,F-K-Rb-Rh,4,KRb2RhF6
0.0,F-K-Rb-Ru,4,KRb2RuF6
3.1918,Br-K-Rb-Sc,4,KRb2ScBr6
4.0163,Cl-K-Rb-Sc,4,KRb2ScCl6
6.5991,F-K-Rb-Sc,4,KRb2ScF6
6.517799999999999,F-K-Rb-Sc,4,KRb2ScF6
6.3813,F-K-Rb-Sc,4,KRb2ScF6
2.339,I-K-Rb-Sc,4,KRb2ScI6
5.729100000000001,F-K-Rb-Si,4,KRb2SiF7
4.796,Cl-K-Rb-Sm,4,KRb2SmCl6
4.6099,Cl-K-Rb-Tb,4,KRb2TbCl6
0.0,F-K-Rb-Ti,4,KRb2TiF6
1.41,Br-K-Rb-Tl,4,KRb2TlBr6
2.416,Cl-K-Rb-Tl,4,KRb2TlCl6
3.8557,F-K-Rb-Tl,4,KRb2TlF6
4.871499999999999,Cl-K-Rb-Tm,4,KRb2TmCl6
0.0,F-K-Rb-V,4,KRb2VF6
3.5106,F-K-O-Rb-W,5,KRb2W(OF)3
6.383,F-K-Rb-Y,4,KRb2YF6
4.5842,F-K-O-Rb-Zr,5,KRb2ZrOF5
0.0,K-Rb,2,KRb3
0.0947,Au-K-Rb,3,KRbAu2
4.7258,Cl-K-Rb,3,KRbCl2
4.9089,Cl-K-Rb,3,KRbCl2
0.0,K-Mg-Rb,3,KRbMg14
1.0375999999999994,K-Mg-O-Rb,4,KRbMg14O15
0.8597000000000001,K-Mg-O-Rb,4,KRbMg14O15
2.1229,K-Mg-O-Rb,4,KRbMg14O15
2.014,K-Mg-O-Rb,4,KRbMg14O15
0.0,K-Mg-O-Rb,4,KRbMg6O7
0.9066999999999998,K-Mg-O-Rb,4,KRbMg6O7
3.3435,F-K-Mn-Rb,4,KRbMnF6
1.2445,K-O-Rb,3,KRbO
0.0,K-O-Rb,3,KRbO
0.0,K-O-Rb,3,KRbO3
2.2214,K-Rb-S,3,KRbS
2.5755,K-O-P-Rb-Ti,5,KRbTi4(PO4)6
2.6228,F-K-O-Re,4,KRe2O4F7
2.9076,F-K-O-Re,4,KRe4O8F13
0.0133,Cl-K-O-Re,4,KReCl4O
0.0,K-O-Re,3,KReO2
0.0,K-O-Re,3,KReO3
3.7244,K-O-Re,3,KReO4
0.0,F-K-Rh,3,KRhF6
0.0,K-O-Rh,3,KRhO3
1.1302,F-K-Ru,3,KRuF6
0.0,K-N-Ru,3,KRuN
0.5648,K-N-Ru,3,KRuN
0.0,K-O-Ru,3,KRuO2
0.0,K-O-Ru,3,KRuO3
0.0,K-O-Ru,3,KRuO4
0.0,K-S,2,KS
0.3759999999999999,K-S,2,KS
1.469,K-S,2,KS
2.4009,K-N-O-S,4,KSNO
0.0,K-N-O-S,4,KSNO3
0.6803000000000001,K-O-S,3,KSO2
4.1568000000000005,F-K-O-S,4,KSO2F
3.9815,F-K-O-S,4,KSO2F
5.1172,F-K-O-S,4,KSO3F
3.559,K-O-S,3,KSO4
3.5193000000000003,K-O-S,3,KSO4
2.2544000000000004,K-Mo-O-Sb,4,KSb(MoO4)2
2.9559,K-O-P-Sb,4,KSb(PO4)2
0.2153,K-Sb,2,KSb2
0.0,K-Sb,2,KSb3
4.6612,F-K-Sb,3,KSb4F13
4.7516,F-K-Sb,3,KSb4F13
0.7948,K-O-Sb,3,KSb5O13
2.0845,Cl-K-Sb,3,KSbCl6
4.9335,F-K-Sb,3,KSbF6
2.011,K-O-Sb,3,KSbO2
0.0,K-O-Sb,3,KSbO3
1.1212999999999995,K-O-Sb,3,KSbO3
2.6808,K-O-Sb,3,KSbO3
0.0,C-K-O-P-Sb,5,KSbPCO7
1.601,K-S-Sb,3,KSbS2
1.4531999999999998,K-Sb-Se,3,KSbSe2
2.8241000000000005,K-O-Sb-W,4,KSbWO6
3.616,K-Mo-O-Sc,4,KSc(MoO4)2
4.2783,K-O-S-Sc,4,KSc(SO4)2
4.4071,K-O-S-Sc,4,KSc(SO4)2
4.1493,K-O-Sc-W,4,KSc(WO4)2
3.1121000000000003,K-O-Sc-W,4,KSc(WO4)2
0.0,Co-K-Sc,3,KSc2Co
5.7069,F-K-Sc,3,KSc2F7
3.86,As-H-K-O-Sc,5,KScAs2(HO4)2
4.6379,B-H-K-O-P-Sc,6,KScBP2HO9
6.0931,F-K-Sc,3,KScF4
3.6241,K-O-Sc,3,KScO2
0.0,K-O-Sc,3,KScO3
4.6231,F-K-Sc-Tl,4,KScTl2F6
0.0,K-Se,2,KSe
0.7039,K-Se,2,KSe
0.1352999999999999,K-O-Se,3,KSe2O
0.0,K-Se,2,KSe3
3.3338,F-K-O-Se,4,KSeO2F
0.0,K-Si,2,KSi
0.0,Hg-K-Si,3,KSi2Hg
3.673199999999999,K-N-Si,3,KSi2N3
0.5781000000000001,K-O-Si,3,KSi4O9
2.5733,H-K-Si,3,KSiH3
0.0,K-O-Si,3,KSiO3
5.168,C-K-O-P-Si,5,KSiPCO7
0.0,K-Si-Tc,3,KSiTc2
0.0,K-Sm,2,KSm
4.3453,C-K-O-Sm,4,KSm(CO3)2
0.0,Fe-K-O-Sm,4,KSm(FeO3)4
3.3128,K-Mo-O-Sm,4,KSm(MoO4)2
3.3732,K-Mo-O-Sm,4,KSm(MoO4)2
0.0,K-Ni-O-Sm,4,KSm(NiO3)4
3.5365,K-O-Sm-W,4,KSm(WO4)2
3.8227,K-O-Sm-W,4,KSm(WO4)2
0.5692000000000004,Cu-K-S-Sm,4,KSm2CuS4
0.0,K-Sm,2,KSm3
0.0,Eu-K-O-Sb-Sm,5,KSmEuSbO6
0.4419000000000004,Eu-K-O-Sm-W,5,KSmEuWO6
6.9859,F-K-Sm,3,KSmF4
1.6626,Ge-K-Se-Sm,4,KSmGeSe4
2.7483000000000004,Hf-K-O-Sm,4,KSmHf2O6
0.0,Hf-K-O-Sm,4,KSmHf4O12
3.2509,Hf-K-O-Sm-Sn,5,KSmHfSnO6
2.6097,Hf-K-O-Sm-Zr,5,KSmHfZrO6
0.0,K-Mn-O-Sm,4,KSmMn4O12
3.8604,K-O-Sm,3,KSmO2
5.4649,H-K-O-P-Sm,5,KSmP3HO10
0.7336,K-O-Pd-Sm,4,KSmPdO3
2.2759,K-S-Sm,3,KSmS2
1.8906000000000005,K-Se-Sm,3,KSmSe2
2.3670000000000004,K-O-Sm-Sn-W,5,KSmSnWO6
2.0587000000000004,K-O-Sm-Sn-W,5,KSmSnWO6
1.2623000000000002,K-Sm-Te,3,KSmTe2
0.0,K-O-Sm-Ti,4,KSmTi4O12
2.3370999999999995,K-O-Sm-Ti,4,KSmTiO4
2.8282000000000003,K-O-Sm-Sn-Ti,5,KSmTiSnO6
0.4585999999999999,K-O-Sm-V,4,KSmV4O12
0.0,K-Sn,2,KSn2
3.4498999999999995,K-O-P-Sn,4,KSn2(PO4)3
3.0071,Cl-K-Sn,3,KSn2Cl5
2.1299,F-K-Sn,3,KSn2F5
0.0,K-Sn,2,KSn3
0.3351999999999999,As-K-Sn,3,KSnAs
1.2806,K-N-Sn,3,KSnN
1.0276999999999994,K-N-Sn,3,KSnN
0.0,K-N-Sn,3,KSnN3
1.9693,K-O-Sn,3,KSnO2
0.0,K-Os-Sn,3,KSnOs
2.4247,C-K-O-P-Sn,5,KSnPCO7
0.0,K-S-Sn,3,KSnS2
3.8899,F-K-O-S-Sn,5,KSnSO4F
0.2609000000000003,K-Sb-Sn,3,KSnSb
0.0,K-Se-Sn,3,KSnSe2
0.0,Bi-K-O-Sr,4,KSr(BiO3)2
0.0,Bi-K-O-Sr,4,KSr2(BiO3)3
0.0,K-Sr,2,KSr3
4.173,B-K-O-Sr,4,KSr4(BO3)3
5.2873,B-K-O-P-Sr,5,KSrB(PO4)2
0.0,Bi-K-O-Sr,4,KSrBi2O5
2.267100000000001,Bi-K-O-Sr-W,5,KSrBiWO6
4.1032,C-F-K-O-Sr,5,KSrCO3F
0.0,Ca-K-Mn-O-Sr,5,KSrCaMnO6
1.6961,Bi-Ce-K-O-Sr,5,KSrCeBiO6
0.0,Ce-Fe-K-O-Sr,5,KSrCeFeO6
0.0,Ce-K-Mn-O-Sr,5,KSrCeMnO6
2.0628,Ce-K-Nb-O-Sr,5,KSrCeNbO6
1.9233,Ce-K-O-Sb-Sr,5,KSrCeSbO6
0.0,Ce-K-O-Sr-W,5,KSrCeWO6
2.8841,Dy-K-O-Sr-W,5,KSrDyWO6
0.0,Eu-Fe-K-O-Sr,5,KSrEuFeO6
0.0,Eu-K-O-Se-Sr,5,KSrEuSeO6
0.0,Eu-K-O-Sr-W,5,KSrEuWO6
0.0,Gd-K-Mn-O-Sr,5,KSrGdMnO6
2.8469999999999995,Gd-K-O-Sr-W,5,KSrGdWO6
1.1399,Bi-Hf-K-O-Sr,5,KSrHfBiO6
3.9993,I-K-Sr,3,KSrI3
0.0,K-La-Mn-O-Sr,5,KSrLaMnO6
2.1093,K-La-O-Se-Sr,5,KSrLaSeO6
2.9628999999999994,K-La-O-Sr-W,5,KSrLaWO6
0.0,K-Mg-Sr,3,KSrMg14
0.0,K-Mg-Sr,3,KSrMg6
0.0,Bi-K-Mn-O-Sr,5,KSrMnBiO6
0.0,K-Mn-O-Sn-Sr,5,KSrMnSnO6
0.0,K-N-Sr,3,KSrN
1.7845,F-K-Nb-O-Sr,5,KSrNb2O6F
0.0,Bi-K-Nb-O-Sr,5,KSrNbBiO6
0.0,Fe-K-Nd-O-Sr,5,KSrNdFeO6
0.0,K-Mn-Nd-O-Sr,5,KSrNdMnO6
1.9635,K-Nd-O-Se-Sr,5,KSrNdSeO6
2.858,K-Nd-O-Sr-W,5,KSrNdWO6
0.0,K-O-Sr,3,KSrO3
5.0889,K-O-P-Sr,4,KSrPO4
0.0,Bi-K-O-Pr-Sr,5,KSrPrBiO6
0.0,Fe-K-O-Pr-Sr,5,KSrPrFeO6
0.0,K-Mn-O-Pr-Sr,5,KSrPrMnO6
0.0,K-Nb-O-Pr-Sr,5,KSrPrNbO6
0.0,K-O-Pr-Sb-Sr,5,KSrPrSbO6
1.9789000000000003,K-O-Pr-Se-Sr,5,KSrPrSeO6
2.8602,K-O-Pr-Sr-W,5,KSrPrWO6
1.575,K-Sb-Sr,3,KSrSb
1.3453,K-O-Sb-Sr-W,5,KSrSbWO6
0.0,Fe-K-O-Sm-Sr,5,KSrSmFeO6
0.0,K-Mn-O-Sm-Sr,5,KSrSmMnO6
1.9386000000000003,K-O-Se-Sm-Sr,5,KSrSmSeO6
2.8665000000000003,K-O-Sm-Sr-W,5,KSrSmWO6
0.0,Bi-K-O-Sn-Sr,5,KSrSnBiO6
0.0,Bi-K-O-Sr-Tb,5,KSrTbBiO6
0.0,K-O-Sb-Sr-Tb,5,KSrTbSbO6
2.8873999999999995,K-O-Sr-Tb-W,5,KSrTbWO6
3.49,K-O-Sr-V,4,KSrVO4
3.8445,K-O-Sr-V,4,KSrVO4
2.8822,K-O-Sr-W-Y,5,KSrYWO6
1.0783999999999998,Bi-K-O-Sr-Zr,5,KSrZrBiO6
3.6136,B-K-O-Ta,4,KTa(BO3)2
1.6646,Cu-K-Se-Ta,4,KTa(CuSe2)2
3.5181,Ge-K-O-Ta,4,KTa(GeO3)3
3.3393,K-O-P-Ta,4,KTa(PO4)2
0.0,K-O-Ta,3,KTa2O6
2.8634,Cl-K-Ta,3,KTaCl6
6.2645,F-K-Ta,3,KTaF6
6.3737,F-K-Ta,3,KTaF6
2.0995,K-O-Ta,3,KTaO3
0.0,K-Pt-Ta,3,KTaPt
3.019,K-O-Ta-Ti,4,KTaTiO5
3.2588,K-O-Ta-W,4,KTaWO6
0.999,K-O-Ta-W,4,KTaWO7
4.4195,C-K-O-Tb,4,KTb(CO3)2
0.0,Fe-K-O-Tb,4,KTb(FeO3)4
3.2564,K-Mo-O-Tb,4,KTb(MoO4)2
5.33,K-O-P-Tb,4,KTb(PO3)4
3.3535000000000004,K-O-Tb-W,4,KTb(WO4)2
0.9798999999999998,Cu-K-S-Tb,4,KTb2CuS4
6.9502,F-K-Tb,3,KTb3F10
0.0,F-K-Tb,3,KTb3F12
0.0,Eu-Ge-K-O-Tb,5,KTbEuGeO6
0.0,Eu-K-Nb-O-Tb,5,KTbEuNbO6
0.0,Eu-K-O-Sb-Tb,5,KTbEuSbO6
0.4137000000000004,Eu-K-O-Tb-W,5,KTbEuWO6
2.2297,Ge-K-S-Tb,4,KTbGeS4
3.1416,K-Nd-O-Sb-Tb,5,KTbNdSbO6
0.0,K-O-Tb,3,KTbO3
2.3999,K-Nb-O-Pr-Tb,5,KTbPrNbO6
3.1998,K-O-Pr-Sb-Tb,5,KTbPrSbO6
2.3136,K-S-Tb,3,KTbS2
2.084,K-O-Sn-Tb-W,5,KTbSnWO6
2.4964,K-O-Sn-Tb-W,5,KTbSnWO6
0.0,K-O-Tb-Ti,4,KTbTi4O12
0.0,K-O-Tc,3,KTcO2
0.0,K-O-Tc,3,KTcO3
3.1886,K-O-Tc,3,KTcO4
0.6708999999999998,K-Te,2,KTe
4.5077,F-K-Te,3,KTe2F9
0.0,K-Te,2,KTe3
3.0664,F-K-O-Te,4,KTe3O6F
0.0,Au-K-Te,3,KTeAu
5.2046,F-K-Te,3,KTeF5
5.0324,F-H-K-O-Te,5,KTeHOF4
0.0,K-O-Te,3,KTeO3
0.5381,K-O-Te,3,KTeO4
0.3631,K-O-Te,3,KTeO4
0.0,K-O-Te,3,KTeO5
3.9669,F-K-O-Te,4,KTeOF3
1.2093000000000005,K-P-Te,3,KTeP2
4.599,K-O-P-Th,4,KTh2(PO4)3
0.0,K-Th,2,KTh3
2.0422,Cu-K-S-Th,4,KThCuS3
0.0,K-O-Th-Ti,4,KThTi2O6
2.5455,K-O-P-Ti,4,KTi2(PO4)3
0.0,Bi-K-Ti,3,KTi2Bi
1.3770000000000002,Bi-K-O-Ti,4,KTi2BiO6
0.0,F-K-Ti,3,KTi2F7
2.5699,Al-K-O-Ti,4,KTi3AlO8
2.3423,Fe-K-O-Ti,4,KTi3FeO8
2.5119,K-Nb-O-Ti,4,KTi3NbO9
0.0,K-Se-Ti,3,KTi5Se8
0.0,K-O-Ti,3,KTi6O12
1.7001,Cu-K-Se-Ti,4,KTiCu3Se4
0.0,F-K-Ti,3,KTiF4
0.0,H-K-O-S-Ti,5,KTiH2S2O9
2.7073,K-Nb-O-Ti,4,KTiNbO5
0.8895,F-K-O-Ti,4,KTiO2F
0.0,K-O-Ti,3,KTiO3
2.3913,C-K-O-P-Ti,5,KTiPCO7
1.2217,K-P-S-Ti,4,KTiPS5
0.601,K-P-Se-Ti,4,KTiPSe5
0.0,K-S-Ti,3,KTiS2
0.0,K-Tl,2,KTl
5.5212,C-K-N-Tl,4,KTl(CN)4
0.0,Co-K-Se-Tl,4,KTl(CoSe)4
2.049,K-O-S-Tl,4,KTl(SO4)2
0.0,K-Tl,2,KTl2
0.0,Bi-K-Tl,3,KTl2Bi
3.5979,Cr-F-K-Tl,4,KTl2CrF6
4.5515,F-Ga-K-Tl,4,KTl2GaF6
2.4401,F-K-Mo-Tl,4,KTl2MoF6
0.0,K-Tl,2,KTl3
0.0,Co-K-Se-Tl,4,KTl4(CoSe)10
0.9246,Br-K-Tl,3,KTlBr3
1.097,Cl-K-Tl,3,KTlCl3
2.3241,Cl-K-Tl,3,KTlCl4
1.9647,F-K-Tl,3,KTlF3
0.0,I-K-Tl,3,KTlI3
1.1638000000000002,K-O-Tl,3,KTlO
0.8820000000000001,K-O-Tl,3,KTlO2
0.0,K-O-Tl,3,KTlO3
1.3576,K-Se-Tl,3,KTlSe2
0.0,K-Tm,2,KTm
4.5095,C-K-O-Tm,4,KTm(CO3)2
3.1386000000000003,K-Mo-O-Tm,4,KTm(MoO4)2
1.0489999999999997,Cu-K-Se-Tm,4,KTm2Cu3Se5
7.4658,Be-F-K-Tm,4,KTmBeF6
0.0,I-K-Tm,3,KTmI3
3.9715,K-O-Tm,3,KTmO2
0.0,K-O-Tm,3,KTmO3
0.2629000000000001,K-O-Te-U,4,KU(TeO4)2
0.2336,K-O-P-U,4,KU2(PO4)3
0.0,K-Sb-Se-U,4,KU2SbSe8
1.7582999999999998,Cl-K-O-U,4,KUClO3
0.0,Cu-K-S-U,4,KUCuS3
0.0,Cu-K-Se-U,4,KUCuSe3
2.3262,K-N-O-U,4,KUN3O11
0.4454000000000002,K-O-U,3,KUO3
2.1688,H-K-O-Si-U,5,KUSiHO6
0.536,K-O-Si-U,4,KUSiO7
1.076,Cu-K-S-V,4,KV(CuS2)2
0.5844999999999998,Cu-K-Se-V,4,KV(CuSe2)2
2.1316,Ag-K-O-V,4,KV2AgO6
1.8417,Cr-K-O-V,4,KV2CrO7
1.9738,Ag-Fe-K-O-V,5,KV2Fe(AgO4)2
0.0,H-K-O-P-V,5,KV2P2H4O13
1.6321,Ge-K-O-V,4,KV3Ge2O9
1.8135,K-O-V,3,KV3O8
0.0,K-O-V,3,KV4O10
0.0,K-O-V,3,KV4O8
0.0,K-S-V,3,KV5S8
0.0,K-Se-V,3,KV5Se8
0.3273000000000001,K-O-V,3,KV6O11
0.0,K-O-V,3,KV6O11
0.0,Bi-K-O-V-W,5,KVBiWO6
0.3342,Cl-K-V,3,KVCl3
0.3110999999999997,Cu-K-Se-V,4,KVCu3Se4
2.0758999999999994,F-K-V,3,KVF3
2.8415,H-K-O-V,4,KVH4O7
0.6965,H-K-O-V,4,KVH4O7
2.7133,H-K-O-V,4,KVH4O7
2.93,H-K-O-S-V,5,KVH6SO9
2.7192,H-K-O-Se-V,5,KVH6SeO9
2.9702,H-K-O-V,4,KVHO3
1.9415,H-K-O-Se-V,5,KVHSe2O7
0.1426,F-K-Ni-O-V,5,KVNiOF6
1.0393,K-O-V,3,KVO2
0.2186000000000003,K-O-V,3,KVO3
3.0460000000000003,K-O-V,3,KVO3
0.0,K-O-V,3,KVO4
0.0182999999999999,F-K-O-V,4,KVOF3
3.6667,F-K-O-V,4,KVOF4
0.0,K-P-S-V,4,KVP2S7
3.0694,K-O-P-V,4,KVPO5
3.3834000000000004,K-O-Pb-V,4,KVPbO4
0.6248,K-O-S-V,4,KVSO9
0.0,Cl-K-W,3,KWCl6
0.0,K-O-W,3,KWO3
2.8936,F-K-O-Xe,4,KXeO3F
0.0,K-Y,2,KY
2.0998,C-K-O-Y,4,KY(CO)8
4.3035,C-K-O-Y,4,KY(CO3)2
0.0,Cu-K-O-Y,4,KY(CuO2)2
2.6774,H-K-N-Y,4,KY(H2N)4
5.3392,K-O-P-Y,4,KY(PO3)4
5.3607,K-O-P-Y,4,KY(PO3)4
3.0495,K-O-W-Y,4,KY(WO4)2
1.0114999999999998,Cu-K-S-Y,4,KY2CuS4
0.0,K-O-S-Ti-Y,5,KY2Ti2S2O5
6.9409,F-K-Y,3,KY3F10
5.996700000000001,F-K-Y,3,KY3F10
7.369400000000001,Be-F-K-Y,4,KYBeF6
2.4131,Ge-K-S-Y,4,KYGeS4
1.1372,C-H-K-O-Y,5,KYH4C4O9
0.0,K-Mg-Y,3,KYMg14
1.8842,K-Mg-O-Y,4,KYMg14O16
1.849,K-Mg-O-Y,4,KYMg14O16
0.0,K-Mg-Y,3,KYMg6
1.2810999999999997,K-Mg-O-Y,4,KYMg6O8
2.2579,K-Mg-O-Y,4,KYMg6O8
2.8095000000000003,K-Mn-O-W-Y,5,KYMnWO6
3.9739,K-O-Y,3,KYO2
0.0,K-O-Y,3,KYO3
5.2018,K-O-P-Y,4,KYP2O7
2.3221,K-S-Y,3,KYS2
2.8038000000000003,K-S-Si-Y,4,KYSiS4
0.7193,K-Sn-Y,3,KYSn
2.1069,K-O-Sn-W-Y,5,KYSnWO6
2.514,K-O-Sn-W-Y,5,KYSnWO6
2.2072000000000003,K-O-Ta-Y,4,KYTa2O7
1.2981000000000005,K-Te-Y,3,KYTe2
4.4661,B-K-O-Zn,4,KZn(BO2)3
4.4907,K-O-P-Zn,4,KZn(PO3)3
0.0,K-Zn,2,KZn13
0.0285999999999999,K-O-P-Zn,4,KZn2(PO4)2
3.7082,B-Cl-K-O-Zn,5,KZn2BCl2O3
2.7164,B-Cd-F-K-O-Zn,6,KZn2CdB2O6F
3.9897,H-K-O-P-Zn,5,KZn2P2HO8
2.8200000000000003,B-K-O-Zn,4,KZn4(BO3)3
1.6514000000000002,K-O-Sb-Zn,4,KZn4(SbO4)3
0.5011000000000001,K-P-Zn,3,KZn4P3
0.8601000000000001,K-O-Sb-Zn,4,KZn4SbO7
0.1991,As-K-Zn,3,KZnAs
0.2742,As-K-Zn,3,KZnAs
4.885,B-Cl-H-K-Zn,5,KZnB(H2Cl)2
0.8106,Cu-K-Te-Zn,4,KZnCuTe2
3.6954,F-K-Zn,3,KZnF3
4.7751,H-K-O-S-Zn,5,KZnH5(SO5)2
0.5486999999999999,K-N-Zn,3,KZnN
0.0,K-O-Zn,3,KZnO3
0.8395999999999999,K-P-Zn,3,KZnP
4.477,H-K-O-P-Zn,5,KZnP2H5O9
3.9579,K-O-P-Zn,4,KZnPO4
0.3446000000000002,K-Sb-Zn,3,KZnSb
0.443,K-Sb-Zn,3,KZnSb
0.7410000000000001,Bi-K-O-Zr,4,KZr2BiO6
0.0,K-Nb-Zr,3,KZr2Nb
0.0,Bi-K-O-Zr,4,KZr4BiO12
1.7187,Cu-K-Se-Zr,4,KZrCu3Se4
0.5924999999999998,Cu-K-S-Zr,4,KZrCuS3
0.2143999999999999,Cu-K-Se-Zr,4,KZrCuSe3
1.3028000000000004,Bi-Ge-K-O-Zr,5,KZrGeBiO6
0.4898999999999995,In-K-O-W-Zr,5,KZrInWO6
1.1158000000000006,Bi-K-Mn-O-Zr,5,KZrMnBiO6
0.0,Bi-K-Nb-O-Zr,5,KZrNbBiO6
0.0,K-O-Zr,3,KZrO3
3.8916,C-K-O-P-Zr,5,KZrPCO7
0.0,K-S-Zr,3,KZrS2
0.9464,Bi-K-O-Sn-Zr,5,KZrSnBiO6
2.7769000000000004,K-O-Sb-Sn-Zr,5,KZrSnSbO6
3.1083,F-K-O-Tl-Zr,5,KZrTl2OF5
7.1771,Kr,1,Kr
7.1828,Kr,1,Kr
7.1667,Kr,1,Kr
7.0685,Kr,1,Kr
7.56,Kr,1,Kr
0.0,F-Kr,2,KrF2
2.7303,F-Kr,2,KrF2
0.0,La,1,La
0.0,Ag-Ge-La,3,La(AgGe)2
0.0,Al-Cr-La,3,La(Al2Cr)4
0.0,Al-Fe-La,3,La(Al2Fe)4
0.0,Al-Cu-La,3,La(Al5Cu)2
0.0,Al-Fe-La,3,La(Al5Fe)2
0.0,Al-La-Ru,3,La(Al5Ru)2
0.0,Al-Ga-La,3,La(AlGa)2
0.0,Al-Ge-La,3,La(AlGe)2
0.0,Al-La-Pd,3,La(AlPd)2
0.0,Al-La-Si,3,La(AlSi)2
0.0,Al-La-Zn,3,La(AlZn)2
0.0,As-La-Os,3,La(As3Os)4
0.0,As-Ir-La,3,La(AsIr)2
0.0,As-La-Pd,3,La(AsPd)2
0.0,As-La-Rh,3,La(AsRh)2
0.0,As-La-Ru,3,La(AsRu)2
0.0,B-C-La,3,La(BC)2
0.0,B-Ir-La,3,La(BIr)2
0.0,B-Ir-La,3,La(BIr)4
4.543200000000001,B-La-O,3,La(BO2)3
4.1959,B-La-O,3,La(BO2)3
0.0,B-La-Os,3,La(BOs)2
0.0,B-La-Os,3,La(BOs)4
0.0,B-La-Ru,3,La(BRu)4
0.0,Bi-La-O,3,La(BiO2)2
3.5301,C-La-N,3,La(C2N3)3
0.2082999999999999,As-Cd-La,3,La(CdAs)3
0.0,B-Ce-La,3,La(CeB8)3
0.0,Cl-La-O,3,La(ClO)3
3.9271,Cl-La-O,3,La(ClO4)3
0.0,B-Co-La,3,La(Co2B)6
0.0,As-Co-La,3,La(CoAs)2
0.0,B-Co-La,3,La(CoB)2
0.0,B-Co-La,3,La(CoB)4
0.0,Co-Ge-La,3,La(CoGe)2
0.0,Co-La-O,3,La(CoO)3
0.0,Co-La-P,3,La(CoP)2
0.0,Co-La-Si,3,La(CoSi)2
0.0,Cu-Ge-La,3,La(CuGe)2
0.0,Cu-La-O,3,La(CuO2)2
0.0,Cu-La-Si,3,La(CuSi)2
0.0,Cu-La-Sn,3,La(CuSn)2
1.0602999999999998,Er-La-S,3,La(ErS2)3
0.0,Er-La-Se,3,La(ErSe2)2
0.0,B-Fe-La,3,La(Fe2B)6
0.0,As-Fe-La,3,La(FeAs3)4
0.0,Fe-Ge-La,3,La(FeGe)2
0.0,Fe-La-P,3,La(FeP)2
0.0,Fe-La-P,3,La(FeP3)4
0.0,Fe-La-Sb,3,La(FeSb3)4
0.0,Fe-La-Si,3,La(FeSi)2
0.0,Ga-La-Pd,3,La(GaPd)2
0.0,Ge-La-Rh,3,La(Ge2Rh3)2
0.0,Ge-La-Pt,3,La(Ge3Pt)4
0.0,Ge-Ir-La,3,La(GeIr)2
0.0,Ge-La-Pd,3,La(GePd)2
0.0,Ge-La-Pt,3,La(GePt)2
0.0,Ge-La-Rh,3,La(GeRh)2
0.0,Ge-La-Ru,3,La(GeRu)2
3.7164,H-La-O,3,La(HO)3
3.8558,H-La-O,3,La(HO)3
4.0196,H-La-O,3,La(HO)3
4.0055,H-La-O,3,La(HO)3
3.7569,H-La-O,3,La(HO)3
4.0200000000000005,H-La-O,3,La(HO)3
0.0,C-Ho-La,3,La(Ho2C5)2
1.0735,Ho-La-S,3,La(HoS2)3
0.0,I-La-O,3,La(IO3)3
0.0,In-La-Ni,3,La(In2Ni)3
1.0627000000000004,La-Lu-S,3,La(LuS2)3
0.0,Al-La-Mg,3,La(Mg2Al)4
0.0,La-Mg-Si,3,La(MgSi)2
0.0,Al-La-Mn,3,La(MnAl2)4
0.0,Ge-La-Mn,3,La(MnGe)2
0.0,La-Mn-Si,3,La(MnSi)2
0.0,La-Mo-S,3,La(Mo3S4)2
0.0,La-Mo-Se,3,La(Mo3Se4)2
2.2049000000000003,La-N-O,3,La(NO2)3
0.0,B-La-Ni,3,La(Ni2B)6
0.0,La-Ni-Sn,3,La(Ni2Sn)2
0.0,As-La-Ni,3,La(NiAs)2
0.0,Ge-La-Ni,3,La(NiGe)2
0.0,La-Ni-P,3,La(NiP)2
0.0,La-Ni-Sn,3,La(NiSn)2
0.0,La-Os-P,3,La(P3Os)4
0.0,La-P-Ru,3,La(P3Ru)4
4.3796,La-O-P,3,La(PO3)3
0.0,La-P-Pd,3,La(PPd)2
0.0,La-P-Rh,3,La(PRh)2
0.0,La-P-Ru,3,La(PRu)2
0.0,La-O-Pd,3,La(PdO2)2
0.0,B-La-Re,3,La(ReB)4
0.0,La-Re-Si,3,La(ReSi)2
0.0,La-Os-Sb,3,La(Sb3Os)4
0.0,La-Ru-Sb,3,La(Sb3Ru)4
1.2141000000000002,La-O-Sb,3,La(SbO3)3
0.0,La-Pd-Sb,3,La(SbPd)2
0.0,Ag-La-Si,3,La(SiAg)2
0.0,Au-La-Si,3,La(SiAu)2
0.0,Ir-La-Si,3,La(SiIr)2
0.0,La-Ni-Si,3,La(SiNi)2
0.0,La-Os-Si,3,La(SiOs)2
0.0,La-Pd-Si,3,La(SiPd)2
0.0,La-Pt-Si,3,La(SiPt)2
0.0,La-Rh-Si,3,La(SiRh)2
0.0,La-Ru-Si,3,La(SiRu)2
0.0,B-La-Sm,3,La(SmB8)3
0.0,La-Ru-Sn,3,La(Sn3Ru2)2
1.0688000000000004,La-S-Tm,3,La(TmS2)3
0.0,C-La-Y,3,La(YC3)2
1.0838,La-S-Y,3,La(YS2)3
0.2362000000000002,La-P-Zn,3,La(ZnP)3
0.0,La-O-Si,3,La10Si8O3
0.0,Al-Ir-La,3,La2(Al3Ir)3
0.0,Al-La-Rh,3,La2(Al3Rh)3
0.0,B-La-Rh,3,La2(B2Rh3)3
0.0,Bi-La-O,3,La2(BiO2)7
0.0,Co-La-Ni,3,La2(CoNi)5
0.0,Cu-La-Ni,3,La2(CuNi)5
0.0,Er-Ge-La,3,La2(ErGe)3
0.0,Ga-La-Ru,3,La2(Ga3Ru)3
0.0,Ga-La-Ni,3,La2(GaNi)5
0.0,Ge-Ir-La,3,La2(GeIr)3
3.091,Ge-La-O,3,La2(GeO3)3
0.0,In-La-Sn,3,La2(InSn)3
0.0,Ag-La-Mg,3,La2(MgAg3)3
0.0,B-La-Ni,3,La2(Ni2B)3
0.0,La-Pd-Sb,3,La2(SbPd)3
4.419900000000001,La-O-Si,3,La2(SiO3)3
4.3074,La-O-Si,3,La2(SiO3)3
0.0,La-O-Si,3,La2(SiO3)3
0.0,La-Pb-Sn,3,La2(SnPb)3
0.0,La-Pb-Tl,3,La2(TlPb)3
0.0,La-Sn-Tl,3,La2(TlSn)3
0.0,Ge-La-Zn,3,La2(Zn2Ge)3
0.0,Ge-La-Zn,3,La2(ZnGe2)3
0.0,Ag-La-O,3,La2Ag2O5
0.0,Ag-Hg-La,3,La2AgHg
0.0,Ag-Ir-La,3,La2AgIr
0.0,Ag-La-O,3,La2AgO4
0.0,Ag-La-Ru,3,La2AgRu