eg,chemsys,nelements,formula
5.368099999999999,H-K-Mg-O-P,5,K2MgP4(HO2)8
0.0369000000000001,K-Mg-P-S-Ti,5,K2MgTi2(PS5)2
0.0,K-Mg-O-Ti,4,K2MgTi2O5
0.0,Cu-K-Mg-S-V,5,K2MgV2(CuS2)4
0.8884999999999996,K-Mg-O-P-Zn,5,K2MgZn2(PO3)6
0.8736999999999999,H-K-Mg-O-P-Zn,6,K2MgZn4P4(HO8)2
1.0185,H-K-Mg-O-P-Zn,6,K2MgZn4P4(HO8)2
0.9413999999999998,H-K-Mg-O-P-Zn,6,K2MgZn4P4(HO8)2
3.0641,K-Mg-Mo-O-Zr,5,K2MgZr(MoO4)4
0.4759,C-K-Mn-O,4,K2Mn(C2O5)2
0.0,K-Mn-O,3,K2Mn2O3
0.0,K-Mn-S,3,K2Mn3S4
1.6717,H-K-Mn-O-V,5,K2Mn3V2(HO5)2
0.0,Ag-F-K-Mn,4,K2MnAgF6
0.0,As-K-Mn,3,K2MnAs2
0.0,Au-F-K-Mn,4,K2MnAuF6
0.0,Bi-K-Mn,3,K2MnBi2
1.0996,Cl-K-Mn,3,K2MnCl6
2.8070000000000004,F-K-Mn,3,K2MnF4
3.3462,F-K-Mn,3,K2MnF6
2.9778,F-K-Mn,3,K2MnF6
1.3384999999999998,F-H-K-Mn-O,5,K2MnH2OF5
4.2109,H-K-Mn-O-S,5,K2MnH4(SO5)2
2.0277000000000003,H-K-Mn-O-Se,5,K2MnH4(SeO5)2
0.3587,F-Hg-K-Mn,4,K2MnHgF6
0.0,K-Mn-N,3,K2MnN2
0.2292,K-Mn-O,3,K2MnO4
0.0,F-K-Mn-O,4,K2MnOF5
0.0,K-Mn-P,3,K2MnP2
1.4885000000000002,F-H-K-Mn-O-P,6,K2MnP2H2(O4F)2
0.9719999999999998,K-Mn-S,3,K2MnS2
0.9895,K-Mn-Se,3,K2MnSe2
0.0,K-Mn-Te,3,K2MnTe2
0.0,F-K-Mn-Tl,4,K2MnTlF6
2.41,K-Mn-O-V,4,K2MnV2O7
2.2395,K-Mo-O-S,4,K2Mo(SO)2
0.4885000000000001,K-Mo-O,3,K2Mo2O5
3.1424,K-Mo-O,3,K2Mo2O7
3.3529,K-Mo-O,3,K2Mo3O10
0.0,K-Mo-O,3,K2Mo8O13
1.4368,Au-F-K-Mo,4,K2MoAuF6
0.1125,Br-K-Mo,3,K2MoBr4
0.0,Cl-K-Mo,3,K2MoCl6
3.2753,F-H-K-Mo-O,5,K2MoHOF5
0.0397,F-K-Mo-O,4,K2MoO2F5
0.0,F-K-Mo-O,4,K2MoO2F5
4.0703,K-Mo-O,3,K2MoO4
3.1004,K-Mo-O-S,4,K2MoSO3
4.0449,Cl-K-N-O,4,K2NClO3
0.0,Eu-K-Mg-Na-Nb-O,6,K2Na2Eu2MgNb2O10
0.0,K-La-Mg-Na-Nb-O,6,K2Na2La2MgNb2O10
0.2427000000000001,K-La-Mg-Na-Nb-O,6,K2Na2La2MgNb2O10
0.8613999999999999,F-K-Mg-Na-Nb-O,6,K2Na2MgNb2(OF5)2
0.0,F-K-Mg-Na-Nb-O,6,K2Na2MgNb2(OF5)2
0.0,K-Mg-Na-O-Ti,5,K2Na2MgTi2O6
0.0,K-Mo-Na-O-W,5,K2Na2Mo(WO4)3
0.0,K-Na-Nb-O-W,5,K2Na2Nb(WO4)3
0.0,K-Mg-Na-Nb-Nd-O,6,K2Na2Nd2MgNb2O10
0.7839,K-Mg-Na-Nb-Nd-O,6,K2Na2Nd2MgNb2O10
0.2252,K-Mg-Na-Nb-O-Pr,6,K2Na2Pr2MgNb2O10
0.0,K-Mg-Na-Nb-O-Pr,6,K2Na2Pr2MgNb2O10
0.7553999999999998,K-Mg-Na-Nb-O-Pr,6,K2Na2Pr2MgNb2O10
0.0,K-Mg-Na-Nb-O-Sm,6,K2Na2Sm2MgNb2O10
0.8786999999999998,K-Mg-Na-Nb-O-Sm,6,K2Na2Sm2MgNb2O10
2.6225,Be-K-Na-O,4,K2Na4Be2O5
0.0758,Co-K-Na-O,4,K2Na4Co2O5
1.2404,Co-K-Na-O,4,K2Na4Co2O5
0.4821999999999999,Fe-K-Na-O,4,K2Na4Fe2O5
0.0,K-Mo-Na-O-V,5,K2Na6V5(MoO8)3
2.7261,Ag-C-K-N-Na,5,K2NaAg3(CN)6
6.8339,Al-F-K-Na,4,K2NaAl3F12
1.026,Al-As-K-Na,4,K2NaAlAs2
4.3079,Al-Cl-K-Na,4,K2NaAlCl6
6.8580000000000005,Al-F-K-Na,4,K2NaAlF6
2.3466,Al-H-K-Na,4,K2NaAlH6
1.242,Al-K-Na-P,4,K2NaAlP2
0.1469,As-K-Na,3,K2NaAs
2.5764,As-Br-K-Na,4,K2NaAsBr6
3.145,As-Cl-K-Na,4,K2NaAsCl6
4.4981,As-F-K-Na,4,K2NaAsF6
0.0,Au-Br-K-Na,4,K2NaAuBr6
0.0,Au-Cl-K-Na,4,K2NaAuCl6
0.5742,Au-F-K-Na,4,K2NaAuF6
1.771,B-K-Na-P,4,K2NaBP2
3.1276,Bi-Br-K-Na,4,K2NaBiBr6
3.7886,Bi-Cl-K-Na,4,K2NaBiCl6
4.8062000000000005,Bi-F-K-Na,4,K2NaBiF6
2.1103,Bi-I-K-Na,4,K2NaBiI6
0.3152000000000001,Br-Ce-K-Na,4,K2NaCeBr6
0.3200999999999996,Ce-Cl-K-Na,4,K2NaCeCl6
0.2301999999999999,Ce-F-K-Na,4,K2NaCeF6
0.0,Ce-I-K-Na,4,K2NaCeI6
4.8309,Cl-K-Na,3,K2NaCl3
4.9423,Cl-K-Na,3,K2NaCl3
2.4828,Co-K-N-Na-O,5,K2NaCo(NO2)6
2.9932,Co-F-K-Na,4,K2NaCoF6
1.3875000000000002,Cl-Cr-K-Na,4,K2NaCrCl6
4.2057,Cr-F-K-Na,4,K2NaCrF6
0.7248,Cu-F-K-Na,4,K2NaCuF6
4.9377,Cl-Dy-K-Na,4,K2NaDyCl6
4.9656,Cl-Er-K-Na,4,K2NaErCl6
0.0,Cl-Eu-K-Na,4,K2NaEuCl6
4.0922,F-Fe-K-Na,4,K2NaFeF6
0.0,Fe-K-Na-O,4,K2NaFeO3
0.8055000000000001,As-Ga-K-Na,4,K2NaGaAs2
1.6303,Br-Ga-K-Na,4,K2NaGaBr6
2.9202,Cl-Ga-K-Na,4,K2NaGaCl6
5.952,F-Ga-K-Na,4,K2NaGaF6
1.3078999999999998,Ga-K-Na-P,4,K2NaGaP2
3.1345,Cl-Gd-K-Na,4,K2NaGdCl6
0.6228999999999998,As-In-K-Na,4,K2NaInAs2
2.0195,Br-In-K-Na,4,K2NaInBr6
3.2151,Cl-In-K-Na,4,K2NaInCl6
5.2445,F-In-K-Na,4,K2NaInF6
0.6835,I-In-K-Na,4,K2NaInI6
1.0504000000000002,In-K-Na-P,4,K2NaInP2
2.3848,F-Ir-K-Na,4,K2NaIrF6
4.6105,Cl-K-La-Na,4,K2NaLaCl6
5.0025,Cl-K-Lu-Na,4,K2NaLuCl6
0.0,F-K-Mg-Na-O-Ti,6,K2NaMgTiOF5
0.1169999999999999,F-K-Mg-Na-O-V,6,K2NaMgVOF5
0.8815999999999997,F-K-Mg-Na-O-V,6,K2NaMgVOF5
0.1779000000000001,F-K-Mg-Na-O-V,6,K2NaMgVOF5
1.5314,F-K-Mn-Na,4,K2NaMnF6
0.0,F-K-Mn-Na,4,K2NaMnF6
2.7033,F-K-Mo-Na-O,5,K2NaMo(OF)3
3.2003,F-K-Mo-Na-O,5,K2NaMo(OF)3
1.4722999999999995,Br-K-Mo-Na,4,K2NaMoBr6
1.5542000000000002,Cl-K-Mo-Na,4,K2NaMoCl6
3.9023,F-K-Mo-Na,4,K2NaMoF6
1.0859,I-K-Mo-Na,4,K2NaMoI6
2.4266,F-K-Na-Nb-O,5,K2NaNb(OF2)2
2.2955,F-K-Na-Nb-O,5,K2NaNb(OF2)2
2.4644000000000004,F-K-Na-Nb-O,5,K2NaNb(OF2)2
2.3005,F-K-Na-Nb-O,5,K2NaNb(OF2)2
1.9676,K-Na-Nb-O,4,K2NaNb3O9
0.0,F-K-Na-Nb,4,K2NaNbF6
4.0009,Br-K-Na-Nd,4,K2NaNdBr6
4.8337,Cl-K-Na-Nd,4,K2NaNdCl6
5.990500000000001,F-K-Na-Nd,4,K2NaNdF6
3.1158,I-K-Na-Nd,4,K2NaNdI6
0.0,F-K-Na-Ni,4,K2NaNiF6
0.0,K-Na-O,3,K2NaO2
0.0,F-K-Na-Pd,4,K2NaPdF6
0.5740000000000001,F-K-Na-Pd,4,K2NaPdF6
3.9823,Br-K-Na-Pr,4,K2NaPrBr6
4.7855,Cl-K-Na-Pr,4,K2NaPrCl6
5.9483,F-K-Na-Pr,4,K2NaPrF6
3.1022000000000003,I-K-Na-Pr,4,K2NaPrI6
2.0001,F-K-Na-Rh,4,K2NaRhF6
0.0,F-K-Na-Ru,4,K2NaRuF6
2.5456,Br-K-Na-Sb,4,K2NaSbBr6
3.1323000000000003,Cl-K-Na-Sb,4,K2NaSbCl6
3.9986000000000006,F-K-Na-Sb,4,K2NaSbF6
2.0979,I-K-Na-Sb,4,K2NaSbI6
3.0952,Br-K-Na-Sc,4,K2NaScBr6
3.9133,Cl-K-Na-Sc,4,K2NaScCl6
6.749700000000001,F-K-Na-Sc,4,K2NaScF6
2.1954,I-K-Na-Sc,4,K2NaScI6
4.8597,Cl-K-Na-Sm,4,K2NaSmCl6
0.0,Br-K-Na-Ta,4,K2NaTaBr6
0.0,Cl-K-Na-Ta,4,K2NaTaCl6
0.0,F-K-Na-Ta,4,K2NaTaF6
0.0,I-K-Na-Ta,4,K2NaTaI6
4.9113,Cl-K-Na-Tb,4,K2NaTbCl6
0.0,F-K-Na-Ti,4,K2NaTiF6
3.964,F-K-Na-O-Ti,5,K2NaTiOF5
1.0308,Br-K-Na-Tl,4,K2NaTlBr6
1.9894,Cl-K-Na-Tl,4,K2NaTlCl6
3.6205,F-K-Na-Tl,4,K2NaTlF6
0.0748999999999999,I-K-Na-Tl,4,K2NaTlI6
4.9718,Cl-K-Na-Tm,4,K2NaTmCl6
0.0,F-K-Na-V,4,K2NaVF6
4.0741,Br-K-Na-Y,4,K2NaYBr6
4.9526,Cl-K-Na-Y,4,K2NaYCl6
6.2393,F-K-Na-Y,4,K2NaYF6
3.1299,I-K-Na-Y,4,K2NaYI6
0.0,K-Nb-O,3,K2Nb2O5
1.814,Fe-K-Nb-O,4,K2Nb4Fe2O13
0.0,Ag-F-K-Nb,4,K2NbAgF6
2.1291,Ag-K-Nb-S,4,K2NbAgS4
2.1663,Ag-K-Nb-S,4,K2NbAgS4
0.1362999999999999,Au-F-K-Nb,4,K2NbAuF6
0.0,Cl-K-Nb,3,K2NbCl6
1.9582,Cu-K-Nb-S,4,K2NbCuS4
1.6164,Cu-K-Nb-Se,4,K2NbCuSe4
0.0,F-Hg-K-Nb,4,K2NbHgF6
1.2883,F-K-Nb-O,4,K2NbO3F
0.7448999999999999,F-K-Nb-O,4,K2NbO3F5
0.0,K-Nb-O,3,K2NbO6
0.0,F-K-Nb-Tl,4,K2NbTlF6
0.2913000000000001,Ir-K-Nd-O,4,K2Nd2IrO7
1.2669999999999997,K-Mg-Nd-O-S,5,K2Nd2Mg(SO4)4
1.6216999999999997,K-Mg-Nd-O-S,5,K2Nd2Mg(SO4)4
1.0797000000000008,K-Mg-Nd-O-S,5,K2Nd2Mg(SO4)4
1.5616,K-Mg-Nd-O-S,5,K2Nd2Mg(SO4)4
1.6758000000000002,K-Mg-Nd-O-S,5,K2Nd2Mg(SO4)4
2.2681,K-Nd-O-Ti,4,K2Nd2Ti3O10
0.4507000000000003,K-Mg-Nb-Nd-O,5,K2Nd4MgNb2O12
0.0914000000000001,K-Mg-Nb-Nd-O,5,K2Nd4MgNb2O12
0.6721999999999997,K-Mg-Nb-Nd-O,5,K2Nd4MgNb2O12
0.0,K-Mg-Nb-Nd-O,5,K2Nd4MgNb2O12
0.5334000000000003,K-Mg-Nb-Nd-O,5,K2Nd4MgNb2O12
0.3681000000000001,K-Mg-Nb-Nd-O,5,K2Nd4MgNb2O12
3.2105,Ag-Br-K-Nd,4,K2NdAgBr6
3.4986,Ag-Cl-K-Nd,4,K2NdAgCl6
2.4403,Ag-F-K-Nd,4,K2NdAgF6
2.5576,Ag-I-K-Nd,4,K2NdAgI6
2.2347,Au-Cl-K-Nd,4,K2NdAuCl6
2.2312000000000003,Br-Cu-K-Nd,4,K2NdCuBr6
2.4258000000000006,Cl-Cu-K-Nd,4,K2NdCuCl6
0.3584999999999998,Cu-F-K-Nd,4,K2NdCuF6
1.8245,Cu-I-K-Nd,4,K2NdCuI6
4.3287,C-K-Nd-O-P,5,K2NdPCO7
3.0324,C-K-N-Ni,4,K2Ni(CN)4
0.444,C-K-Ni-O,4,K2Ni(CO5)2
0.0,As-K-Ni,3,K2Ni12As7
0.7685999999999997,K-Ni-S,3,K2Ni3S4
0.7006000000000001,K-Ni-S,3,K2Ni3S4
0.4373,K-Ni-Se,3,K2Ni3Se4
0.0802999999999998,As-K-Ni,3,K2NiAs2
0.0,Au-F-K-Ni,4,K2NiAuF6
3.6693,F-K-Ni,3,K2NiF4
2.3603,F-K-Ni,3,K2NiF6
4.3339,C-H-K-Ni-O,5,K2NiH8(CO5)2
1.9584,F-Hg-K-Ni,4,K2NiHgF6
0.577,K-Ni-O,3,K2NiO2
0.6445000000000003,K-Ni-P,3,K2NiP2
0.0,C-K-Ni-O-P,5,K2NiPCO7
1.7504,K-N-Ni-O-Pb,5,K2NiPb(NO2)6
0.2662,K-Np-O,3,K2NpO4
0.0,K-O,2,K2O
0.3822,K-O,2,K2O
1.7426,K-O,2,K2O
0.1553999999999999,K-O,2,K2O
1.7072,K-O,2,K2O
0.8801,K-O,2,K2O
0.6523000000000001,K-O,2,K2O
1.8534,K-O,2,K2O
0.0,K-O,2,K2O2
2.3575,K-O,2,K2O2
2.0834,K-O,2,K2O2
1.7383,Cl-K-O-Os,4,K2Os(Cl2O)2
0.0,Br-K-Os,3,K2OsBr6
0.0,Cl-K-Os,3,K2OsCl6
0.0,K-O-Os,3,K2OsO6
0.0,H-K-O-P,4,K2P2H2O7
3.0413,H-K-O-P,4,K2P2H2O7
5.0435,F-K-O-P,4,K2P2O5F2
1.0789,K-P-Pd,3,K2P2Pd
0.7095000000000002,K-P,2,K2P3
0.9515,Au-K-P,3,K2PAu
1.5691000000000002,Au-K-P-S,4,K2PAuS4
4.0697,H-K-O-P-Se,5,K2PH3SeO8
4.4668,F-K-O-P,4,K2PO3F
3.2014,K-O-P,3,K2PO4
0.0022999999999999,K-O-P-S,4,K2PSO8
3.6522,F-K-Pa,3,K2PaF7
4.436,K-O-Pb-S,4,K2Pb(SO4)2
2.5274,K-O-Pb-S,4,K2Pb(SO4)2
1.6906999999999996,K-O-Pb,3,K2Pb2O3
1.9147,K-O-Pb,3,K2PbO2
1.2096,K-O-Pb,3,K2PbO3
1.2434,K-O-Pb,3,K2PbO3
1.1376,K-O-Pb,3,K2PbO3
0.0,K-O-Pb,3,K2PbO6
0.0,K-Pd,2,K2Pd
3.7889,C-K-N-Pd,4,K2Pd(CN)4
0.5108999999999999,K-Pd-S,3,K2Pd3S4
0.764,K-Pd-Se,3,K2Pd3Se4
0.7342000000000002,K-Pd-Se,3,K2Pd3Se4
1.3535,Br-Cl-K-Pd,4,K2PdBr3Cl
1.2049,Br-K-Pd,3,K2PdBr4
0.5077,Br-K-Pd,3,K2PdBr6
1.4958,Br-Cl-K-Pd,4,K2PdBrCl3
1.4304,C-K-Pd,3,K2PdC2
1.4279000000000002,Cl-K-Pd,3,K2PdCl4
1.2027,Cl-K-Pd,3,K2PdCl6
1.8732,F-K-Pd,3,K2PdF4
2.0399000000000003,F-K-Pd,3,K2PdF6
2.1671,Cl-K-N-O-Pd,5,K2PdN2(ClO2)2
0.0661999999999999,Cl-K-N-O-Pd,5,K2PdN2(ClO2)2
2.006,Cl-K-N-O-Pd,5,K2PdN2(ClO2)2
1.727,Cl-K-N-O-Pd,5,K2PdN2(ClO2)2
1.3697,K-O-Pd,3,K2PdO2
0.0,K-O-Pd,3,K2PdO4
1.117,K-Pd-S,3,K2PdS2
0.8458000000000001,K-Pd-Se,3,K2PdSe2
3.1831,Ag-Br-K-Pr,4,K2PrAgBr6
3.4664,Ag-Cl-K-Pr,4,K2PrAgCl6
2.5361,Ag-F-K-Pr,4,K2PrAgF6
2.5488,Ag-I-K-Pr,4,K2PrAgI6
2.2392,Au-Cl-K-Pr,4,K2PrAuCl6
2.2293000000000003,Br-Cu-K-Pr,4,K2PrCuBr6
2.2912,Cl-Cu-K-Pr,4,K2PrCuCl6
0.3159999999999998,Cu-F-K-Pr,4,K2PrCuF6
1.8073,Cu-I-K-Pr,4,K2PrCuI6
4.2654,C-K-O-P-Pr,5,K2PrPCO7
1.3146,K-Pt,2,K2Pt
0.6222999999999999,K-N-O-Pt,4,K2Pt(N2O5)2
0.0,K-N-O-Pt,4,K2Pt(N2O5)2
1.477,Br-K-Pt,3,K2PtBr4
0.0,Br-K-Pt,3,K2PtBr6
1.1688,Br-K-Pt,3,K2PtBr6
0.9937999999999998,C-K-Pt,3,K2PtC2
1.8196,Cl-K-Pt,3,K2PtCl4
1.8566,Cl-K-Pt,3,K2PtCl6
2.5717,F-K-Pt,3,K2PtF6
0.0012,K-O-Pt,3,K2PtO6
0.1852999999999998,K-O-Pt,3,K2PtO6
0.0,K-O-Pt,3,K2PtO6
1.2355999999999998,K-Pt-S,3,K2PtS2
0.0,K-Pt-S,3,K2PtS6
0.1779,K-Pt-S,3,K2PtS6
0.9345,K-Pt-Se,3,K2PtSe2
0.0,K-O-Pu,3,K2Pu2O5
0.3467000000000001,Cl-K-Pu,3,K2PuCl6
0.0,K-O-Pu,3,K2PuO4
3.3626,Al-Br-K-Rb,4,K2RbAlBr6
4.487,Al-Cl-K-Rb,4,K2RbAlCl6
5.946400000000001,Al-F-K-Rb,4,K2RbAlF6
1.9161,Al-I-K-Rb,4,K2RbAlI6
3.0965,As-Br-K-Rb,4,K2RbAsBr6
3.4807,As-Cl-K-Rb,4,K2RbAsCl6
3.8905,As-F-K-Rb,4,K2RbAsF6
0.0,Au-Br-K-Rb,4,K2RbAuBr6
0.1648,Au-Cl-K-Rb,4,K2RbAuCl6
0.7577999999999999,Au-F-K-Rb,4,K2RbAuF6
0.1399000000000001,Bi-K-Rb,3,K2RbBi
3.4181,Bi-Br-K-Rb,4,K2RbBiBr6
3.9638,Bi-Cl-K-Rb,4,K2RbBiCl6
4.2159,Bi-F-K-Rb,4,K2RbBiF6
3.8124,C-F-K-O-Rb,5,K2RbCO3F
0.3159,Br-Ce-K-Rb,4,K2RbCeBr6
0.3325,Ce-Cl-K-Rb,4,K2RbCeCl6
0.0,Ce-F-K-Rb,4,K2RbCeF6
3.2015,Co-F-K-Rb,4,K2RbCoF6
4.5029,Cr-F-K-Rb,4,K2RbCrF6
4.5105,Cl-Dy-K-Rb,4,K2RbDyCl6
3.4091,Dy-K-O-Rb-V,5,K2RbDyV2O8
4.5391,Cl-Er-K-Rb,4,K2RbErCl6
3.4178,Er-K-O-Rb-V,5,K2RbErV2O8
0.0,Eu-K-O-Rb-V,5,K2RbEuV2O8
2.3254,Br-Ga-K-Rb,4,K2RbGaBr6
3.5572,Cl-Ga-K-Rb,4,K2RbGaCl6
5.5929,F-Ga-K-Rb,4,K2RbGaF6
0.9854,Ga-I-K-Rb,4,K2RbGaI6
3.2314,Cl-Gd-K-Rb,4,K2RbGdCl6
1.3256,Gd-K-Mg-O-Rb-V,6,K2RbGdMgV2O8
3.1889000000000003,Gd-K-O-Rb-V,5,K2RbGdV2O8
3.3687,Ho-K-O-Rb-V,5,K2RbHoV2O8
2.5232,Br-In-K-Rb,4,K2RbInBr6
3.7137,Cl-In-K-Rb,4,K2RbInCl6
5.1078,F-In-K-Rb,4,K2RbInF6
2.2706,F-Ir-K-Rb,4,K2RbIrF6
3.4692,K-La-O-Rb-V,5,K2RbLaV2O8
4.5442,Cl-K-Lu-Rb,4,K2RbLuCl6
3.3743,K-Lu-O-Rb-V,5,K2RbLuV2O8
2.9207,F-K-Mn-Rb,4,K2RbMn2F7
0.0,F-K-Mn-Rb,4,K2RbMnF6
1.6014,Br-K-Mo-Rb,4,K2RbMoBr6
1.6332,Cl-K-Mo-Rb,4,K2RbMoCl6
3.0563,F-K-Mo-Rb,4,K2RbMoF6
1.4308,I-K-Mo-Rb,4,K2RbMoI6
0.0,F-K-Nb-Rb,4,K2RbNbF6
3.6907,Br-K-Nd-Rb,4,K2RbNdBr6
4.359500000000001,Cl-K-Nd-Rb,4,K2RbNdCl6
5.2708,F-K-Nd-Rb,4,K2RbNdF6
3.4296,K-Nd-O-Rb-V,5,K2RbNdV2O8
2.2313,F-K-Pd-Rb,4,K2RbPdF5
0.0,F-K-Pd-Rb,4,K2RbPdF6
3.6885,Br-K-Pr-Rb,4,K2RbPrBr6
4.349600000000001,Cl-K-Pr-Rb,4,K2RbPrCl6
5.2136000000000005,F-K-Pr-Rb,4,K2RbPrF6
3.4240000000000004,K-O-Pr-Rb-V,5,K2RbPrV2O8
0.0,K-Pt-Rb,3,K2RbPt
2.2056,F-K-Rb-Rh,4,K2RbRhF6
0.0,F-K-Rb-Ru,4,K2RbRuF6
0.6879,K-Rb-Sb,3,K2RbSb
2.8383000000000003,Br-K-Rb-Sb,4,K2RbSbBr6
3.3633,Cl-K-Rb-Sb,4,K2RbSbCl6
3.5055,F-K-Rb-Sb,4,K2RbSbF6
3.2468,Br-K-Rb-Sc,4,K2RbScBr6
4.0698,Cl-K-Rb-Sc,4,K2RbScCl6
5.8541,F-K-Rb-Sc,4,K2RbScF6
3.0768,K-O-Rb-Sc-V,5,K2RbScV2O8
3.1515,K-O-Rb-Sm-V,5,K2RbSmV2O8
0.0,Br-K-Rb-Ta,4,K2RbTaBr6
0.0,Cl-K-Rb-Ta,4,K2RbTaCl6
0.0,F-K-Rb-Ta,4,K2RbTaF6
0.0,I-K-Rb-Ta,4,K2RbTaI6
4.247,Cl-K-Rb-Tb,4,K2RbTbCl6
1.5741,K-Mg-O-Rb-Tb-V,6,K2RbTbMgV2O8
1.2526000000000002,K-Mg-O-Rb-Tb-V,6,K2RbTbMgV2O8
1.2881,K-Mg-O-Rb-Tb-V,6,K2RbTbMgV2O8
0.1543000000000001,K-Mg-O-Rb-Tb-V,6,K2RbTbMgV2O8
3.1271,K-O-Rb-Tb-V,5,K2RbTbV2O8
0.0,F-K-Rb-Ti,4,K2RbTiF6
1.5429,Br-K-Rb-Tl,4,K2RbTlBr6
3.7342,F-K-Rb-Tl,4,K2RbTlF6
4.5162,Cl-K-Rb-Tm,4,K2RbTmCl6
3.369,K-O-Rb-Tm-V,5,K2RbTmV2O8
0.0,F-K-Rb-V,4,K2RbVF6
3.71,Br-K-Rb-Y,4,K2RbYBr6
4.4925,Cl-K-Rb-Y,4,K2RbYCl6
5.6436,F-K-Rb-Y,4,K2RbYF6
3.3843,K-O-Rb-V-Y,5,K2RbYV2O8
0.0,K-Re,2,K2Re
0.97,Br-K-Re,3,K2ReBr6
0.0,Cl-K-O-Re,4,K2ReCl5O
1.0776,Cl-K-Re,3,K2ReCl6
1.6997,F-K-Re,3,K2ReF6
5.212999999999999,H-K-Re,3,K2ReH9
0.0,K-O-Rh,3,K2Rh2O5
0.7098,Au-F-K-Rh,4,K2RhAuF6
0.0,F-K-Rh,3,K2RhF6
0.0,Au-F-K-Ru,4,K2RuAuF6
0.0,Cl-K-O-Ru,4,K2RuCl5O
0.0,Cl-K-Ru,3,K2RuCl6
0.0,F-K-N-O-Ru,5,K2RuNO2F5
2.3201,K-S,2,K2S
2.0612,K-S,2,K2S
0.8741,K-N-O-S,4,K2S2NO6
1.961,K-N-O-S,4,K2S2NO7
3.2524,K-O-S,3,K2S2O5
3.1872,K-O-S,3,K2S2O5
5.2193,K-O-S,3,K2S2O7
1.2855,K-S,2,K2S3
0.0,Br-Cl-K-S,4,K2SBrCl6
0.0,K-O-S,3,K2SO3
4.914899999999999,K-O-S,3,K2SO3
5.0531,K-O-S,3,K2SO4
5.2168,K-O-S,3,K2SO4
0.0,K-O-S,3,K2SO4
5.0695,K-O-S,3,K2SO4
1.0023000000000002,Au-K-Sb,3,K2SbAu
0.238,Au-Br-K-Sb,4,K2SbAuBr6
0.351,Au-Cl-K-Sb,4,K2SbAuCl6
0.6938000000000002,Au-F-K-Sb,4,K2SbAuF6
0.0,Au-I-K-Sb,4,K2SbAuI6
4.6778,F-K-Sb,3,K2SbF5
3.1185,H-K-O-Sb,4,K2SbH5O6
3.8333,C-K-O-P-Sb,5,K2SbPCO7
2.8359,Ag-Br-K-Sc,4,K2ScAgBr6
3.248,Ag-Cl-K-Sc,4,K2ScAgCl6
3.0351,Ag-F-K-Sc,4,K2ScAgF6
2.1618,Ag-I-K-Sc,4,K2ScAgI6
1.7408,Au-Br-K-Sc,4,K2ScAuBr6
2.0353000000000003,Au-Cl-K-Sc,4,K2ScAuCl6
1.5837,Au-F-K-Sc,4,K2ScAuF6
1.1642,Au-I-K-Sc,4,K2ScAuI6
1.8772,Cl-Cu-K-Sc,4,K2ScCuCl6
1.2408,Cu-F-K-Sc,4,K2ScCuF6
0.0,Br-Hg-K-Sc,4,K2ScHgBr6
0.0,Cl-Hg-K-Sc,4,K2ScHgCl6
0.0,F-Hg-K-Sc,4,K2ScHgF6
0.0,Hg-I-K-Sc,4,K2ScHgI6
2.3286,Br-In-K-Sc,4,K2ScInBr6
2.5251,Cl-In-K-Sc,4,K2ScInCl6
3.5404000000000004,F-In-K-Sc,4,K2ScInF6
1.9864,I-In-K-Sc,4,K2ScInI6
3.9723,C-K-O-P-Sc,5,K2ScPCO7
3.0604,Br-K-Sc-Tl,4,K2ScTlBr6
3.3972,Cl-K-Sc-Tl,4,K2ScTlCl6
4.6328000000000005,F-K-Sc-Tl,4,K2ScTlF6
2.0925,K-Se,2,K2Se
0.191,K-N-Se,3,K2Se2N
0.0703,K-O-Se,3,K2Se2O
3.0355,K-O-Se,3,K2Se2O7
0.644,K-Se,2,K2Se3
0.0,K-N-Se,3,K2Se4N
0.9023,K-O-Se,3,K2Se4O
1.6978,Br-K-Se,3,K2SeBr6
3.612,K-O-Se,3,K2SeO4
0.0,K-O-Pb-Si,4,K2Si2Pb2O
3.8296,K-O-Si-Sn,4,K2Si3SnO9
3.8617,K-O-Si-Sn,4,K2Si3SnO9
4.4376,K-O-Si,3,K2Si4O9
4.6302,K-O-Si,3,K2Si4O9
1.0036,As-K-Si,3,K2SiAs2
7.1895,F-K-Si,3,K2SiF6
7.2234,F-K-Si,3,K2SiF6
3.7996,H-K-N-O-Si,5,K2SiH4(NO)2
1.2087,K-P-Si,3,K2SiP2
0.2757,Ir-K-O-Sm,4,K2Sm2IrO7
1.6087000000000002,K-Mg-Mo-O-Sm,5,K2Sm2Mg(MoO4)4
1.4144000000000003,K-Mg-Mo-O-Sm,5,K2Sm2Mg(MoO4)4
1.5419999999999998,K-Mg-Mo-O-Sm,5,K2Sm2Mg(MoO4)4
3.5685,Ag-Cl-K-Sm,4,K2SmAgCl6
2.2805,Au-Cl-K-Sm,4,K2SmAuCl6
2.3789000000000007,Cl-Cu-K-Sm,4,K2SmCuCl6
5.1944,C-K-O-P-Sm,5,K2SmPCO7
0.0,K-Sn,2,K2Sn
1.0089,As-K-S-Sn,4,K2Sn(AsS3)2
2.4109000000000003,H-K-N-Sn,4,K2Sn(H2N)6
3.6828,H-K-O-Sn,4,K2Sn(HO)6
1.2308999999999997,K-O-Sn,3,K2Sn2O3
1.3022,K-O-Sn,3,K2Sn2O3
0.0,F-K-O-Sn,4,K2Sn2OF6
1.4063,K-S-Sn,3,K2Sn2S5
1.1772,Br-K-Sn,3,K2SnBr6
0.1878,C-K-O-Sn,4,K2SnC4O9
0.0,Cl-K-O-Sn,4,K2SnCl4O
2.4712,Cl-K-Sn,3,K2SnCl6
5.3443000000000005,F-K-Sn,3,K2SnF6
5.1508,F-K-Sn,3,K2SnF6
1.4785,Hg-K-Se-Sn,4,K2SnHgSe4
0.6227999999999998,Hg-K-Sn-Te,4,K2SnHgTe4
0.0,K-N-Sn,3,K2SnN2
0.0,K-N-Sn,3,K2SnN6
1.5380999999999998,K-O-Sn,3,K2SnO2
2.1547,K-O-Sn,3,K2SnO3
0.2003000000000001,K-O-Sn,3,K2SnO6
0.0,K-O-Sn,3,K2SnO6
0.0,C-K-O-P-Sn,5,K2SnPCO7
2.2443,K-S-Sn,3,K2SnS3
1.646,K-Se-Sn,3,K2SnSe3
5.6094,K-O-P-Sr,4,K2Sr(PO3)4
2.1635,K-O-Sr,3,K2Sr2O3
7.202,Be-F-K-Sr,4,K2SrBe2F8
0.3151999999999999,Cd-K-Sb-Sr,4,K2SrCdSb2
4.7457,Cl-K-Sr,3,K2SrCl4
5.0063,Cl-K-Sr,3,K2SrCl4
0.0424999999999999,Cu-K-N-O-Sr,5,K2SrCu(NO2)6
2.0748,K-O-Sr-Ta,4,K2SrTa2O7
2.6409,K-O-Sr-Ti,4,K2SrTi10O22
0.0,K-O-Ta,3,K2Ta2O5
3.3655,K-O-Ta,3,K2Ta4O11
0.0,Ag-Br-K-Ta,4,K2TaAgBr6
0.0,Ag-Cl-K-Ta,4,K2TaAgCl6
0.3159,Ag-F-K-Ta,4,K2TaAgF6
0.0,Ag-I-K-Ta,4,K2TaAgI6
2.4916,Ag-K-S-Ta,4,K2TaAgS4
2.4256,Ag-K-S-Ta,4,K2TaAgS4
1.169,Au-F-K-Ta,4,K2TaAuF6
0.0,Cl-K-Ta,3,K2TaCl6
0.0,Br-Cu-K-Ta,4,K2TaCuBr6
0.0,Cl-Cu-K-Ta,4,K2TaCuCl6
0.3302,Cu-F-K-Ta,4,K2TaCuF6
0.0,Cu-I-K-Ta,4,K2TaCuI6
0.0,Cu-K-Se-Ta,4,K2TaCuSe4
2.0288000000000004,Cu-K-Se-Ta,4,K2TaCuSe4
0.0,F-Hg-K-Ta,4,K2TaHgF6
1.3152,K-Nb-O-Ta,4,K2TaNbO6
1.7028,K-Nb-O-Ta,4,K2TaNbO6
0.0,F-K-Ta-Tl,4,K2TaTlF6
3.6214,Ag-Cl-K-Tb,4,K2TbAgCl6
1.9648,Au-Cl-K-Tb,4,K2TbAuCl6
2.4713,Cl-Cu-K-Tb,4,K2TbCuCl6
0.0,F-K-Tb,3,K2TbF6
0.0,K-O-Tb,3,K2TbO3
4.4814,C-K-O-P-Tb,5,K2TbPCO7
0.0,K-Tc,2,K2Tc
1.0368,Br-K-Tc,3,K2TcBr6
1.1425999999999998,Cl-K-Tc,3,K2TcCl6
1.7181,F-K-Tc,3,K2TcF6
4.9451,H-K-Tc,3,K2TcH9
2.141,K-Te,2,K2Te
0.0,I-K-O-Te,4,K2Te(IO6)2
0.9208,K-Pd-Te,3,K2Te2Pd
0.2103000000000001,K-Pd-Te,3,K2Te2Pd
0.7917000000000001,K-Pt-Te,3,K2Te2Pt
1.9579,Br-K-Te,3,K2TeBr6
2.5557,Cl-K-Te,3,K2TeCl6
3.4090000000000003,H-K-O-S-Te,5,K2TeH6SO10
3.5774,K-O-Te,3,K2TeO3
4.8881,F-K-O-Te,4,K2TeOF4
0.0417,K-O-S-Te,4,K2TeSO10
1.1260000000000003,Cu-K-S-Th,4,K2Th(CuS2)2
6.5851,F-K-Th,3,K2ThF6
6.3807,F-K-Th,3,K2ThF6
6.6619,F-K-Th,3,K2ThF6
3.7257,K-O-Th,3,K2ThO3
1.6735000000000002,Cu-K-S-Ti,4,K2Ti(CuS2)2
0.9449,F-K-O-Ti,4,K2Ti(OF2)2
3.2566,K-O-Si-Ti,4,K2Ti(Si2O5)3
3.3701,K-O-Si-Ti,4,K2Ti(SiO3)3
3.2108,K-O-Si-Ti,4,K2Ti(SiO3)3
1.5200999999999998,K-O-Te-Ti,4,K2Ti(TeO4)3
3.2006,K-O-Ti,3,K2Ti2O5
3.0211,K-O-Ti,3,K2Ti4O9
2.7535,K-O-Ti,3,K2Ti6O13
2.6099,K-O-Ti,3,K2Ti8O17
0.0,Ag-F-K-Ti,4,K2TiAgF6
0.0,Au-F-K-Ti,4,K2TiAuF6
2.0826,Cl-K-Ti,3,K2TiCl6
0.0,Cu-F-K-Ti,4,K2TiCuF6
4.7349,F-K-Ti,3,K2TiF6
4.7659,F-H-K-Ti,4,K2TiHF7
2.1789,F-Hg-K-Ti,4,K2TiHgF6
0.0,K-N-Ti,3,K2TiN2
3.4121,K-O-Ti,3,K2TiO3
0.1251000000000002,C-K-O-P-Ti,5,K2TiPCO7
1.1215,K-S-Ti,3,K2TiS3
0.0,F-K-Ti-Tl,4,K2TiTlF6
0.0,K-Tc-Tl,3,K2Tl6Tc
0.0,Ag-Br-K-Tl,4,K2TlAgBr6
0.0,Ag-Cl-K-Tl,4,K2TlAgCl6
0.4485,Ag-F-K-Tl,4,K2TlAgF6
0.0,Ag-I-K-Tl,4,K2TlAgI6
1.5711,As-Br-K-Tl,4,K2TlAsBr6
1.905,As-Cl-K-Tl,4,K2TlAsCl6
2.726,As-F-K-Tl,4,K2TlAsF6
0.8611,As-I-K-Tl,4,K2TlAsI6
0.0,Au-Br-K-Tl,4,K2TlAuBr6
0.0,Au-Cl-K-Tl,4,K2TlAuCl6
0.0,Au-F-K-Tl,4,K2TlAuF6
0.0,Au-I-K-Tl,4,K2TlAuI6
3.1816,Bi-F-K-Tl,4,K2TlBiF6
2.5182,Co-F-K-Tl,4,K2TlCoF6
4.0416,Cr-F-K-Tl,4,K2TlCrF6
0.0,Br-Cu-K-Tl,4,K2TlCuBr6
0.0,Cl-Cu-K-Tl,4,K2TlCuCl6
0.0,Cu-F-K-Tl,4,K2TlCuF6
2.5608,F-Fe-K-Tl,4,K2TlFeF6
1.6,Br-Ga-K-Tl,4,K2TlGaBr6
2.5197,Cl-Ga-K-Tl,4,K2TlGaCl6
4.1618,F-Ga-K-Tl,4,K2TlGaF6
0.4975,Ga-I-K-Tl,4,K2TlGaI6
0.0,Br-Hg-K-Tl,4,K2TlHgBr6
0.0,Cl-Hg-K-Tl,4,K2TlHgCl6
0.0,F-Hg-K-Tl,4,K2TlHgF6
0.0,Hg-I-K-Tl,4,K2TlHgI6
2.1232,Br-In-K-Tl,4,K2TlInBr6
2.5682,Cl-In-K-Tl,4,K2TlInCl6
3.6161,F-In-K-Tl,4,K2TlInF6
0.8332999999999999,I-In-K-Tl,4,K2TlInI6
2.2493,F-Ir-K-Tl,4,K2TlIrF6
3.7506,F-K-Mo-Tl,4,K2TlMoF6
0.2858,F-K-Ni-Tl,4,K2TlNiF6
1.2816,C-K-O-P-Tl,5,K2TlPCO7
0.0,F-K-Pd-Tl,4,K2TlPdF6
1.9609,F-K-Rh-Tl,4,K2TlRhF6
0.0,F-K-Ru-Tl,4,K2TlRuF6
1.161,Br-K-Sb-Tl,4,K2TlSbBr6
1.9155,Cl-K-Sb-Tl,4,K2TlSbCl6
2.6523000000000003,F-K-Sb-Tl,4,K2TlSbF6
0.0,F-K-Tl-V,4,K2TlVF6
3.6439,Ag-Cl-K-Tm,4,K2TmAgCl6
2.1163000000000003,Au-Cl-K-Tm,4,K2TmAuCl6
2.4668,Cl-Cu-K-Tm,4,K2TmCuCl6
7.114,F-K-Tm,3,K2TmF5
4.4497,C-K-O-P-Tm,5,K2TmPCO7
1.2993,Br-K-O-U,4,K2U(BrO)4
0.0,K-O-U,3,K2U2O5
1.4709,K-O-U,3,K2U2O7
1.6483,K-O-U,3,K2U2O7
1.6176,K-O-U,3,K2U2O7
1.8921,I-K-O-U,4,K2U3(IO5)4
1.8601,K-O-Te-U,4,K2U3(TeO7)2
0.0,Cu-K-S-U,4,K2UCu3S5
0.0,F-K-U,3,K2UF6
0.2827999999999999,F-K-U,3,K2UF6
1.9773,K-O-U,3,K2UO4
0.0,K-Te-U,3,K2UTe3
2.4724,K-O-P-V,4,K2V(PO4)2
2.582,Co-K-O-V,4,K2V2CoO7
1.1167999999999998,K-O-V,3,K2V2O5
1.7249,K-O-V,3,K2V3O8
1.2496,K-O-V,3,K2V8O21
0.0,Ag-F-K-V,4,K2VAgF6
1.2817000000000005,Ag-K-S-V,4,K2VAgS4
1.3049999999999995,Ag-K-S-V,4,K2VAgS4
0.9843,Ag-K-Se-V,4,K2VAgSe4
0.9994,Ag-K-Se-V,4,K2VAgSe4
0.0,Au-F-K-V,4,K2VAuF6
0.0,Cl-K-V,3,K2VCl6
1.2343,Cu-K-S-V,4,K2VCuS4
1.2228,Cu-K-S-V,4,K2VCuS4
1.1253,Cu-K-Se-V,4,K2VCuSe4
1.0014,Cu-K-Se-V,4,K2VCuSe4
0.2351000000000001,F-H-K-O-V,5,K2VH2OF5
0.0039,F-Hg-K-V,4,K2VHgF6
0.0068000000000001,K-O-W,3,K2W2O5
0.0,K-O-W,3,K2W2O5
0.2767999999999997,K-O-W,3,K2W2O5
2.3693,K-O-W,3,K2W2O7
0.0,Cl-K-W,3,K2WCl6
4.3858,K-O-W,3,K2WO4
0.7081000000000004,Cu-K-Se-Y,4,K2Y4Cu4Se9
3.2941,Ag-Br-K-Y,4,K2YAgBr6