eg,chemsys,nelements,formula
0.0,Ba-Co-Mg-O-Tl,5,Ba2Mg2Tl2Co3O10
0.0,Ba-Cr-Mg-O-Tl,5,Ba2Mg2Tl2Cr3O10
0.0,Ba-Cu-Mg-O-Tl,5,Ba2Mg2Tl2Cu3O10
0.0,Ba-Fe-Mg-O-Tl,5,Ba2Mg2Tl2Fe3O10
0.0,Ba-Mg-Ni-O-Tl,5,Ba2Mg2Tl2Ni3O10
0.0,Ba-Mg-O-Sn-Tl,5,Ba2Mg2Tl2Sn3O10
0.1130000000000004,Ba-Mg-O-Tl-W,5,Ba2Mg2Tl2W3O10
6.892,Ba-F-Mg,3,Ba2Mg3F10
3.0265000000000004,Ba-H-Mg,3,Ba2Mg3H10
0.0,Ba-Mg-Mn-O-Tl,5,Ba2Mg3Mn4Tl2O12
0.0,Ba-Mg-Si,3,Ba2Mg3Si4
0.0,Ba-Mg-O-Ti-Tl,5,Ba2Mg3Ti4Tl2O12
0.0,Ba-Co-Mg-O-Tl,5,Ba2Mg3Tl2(CoO3)4
0.0,Ba-Cu-Mg-O-Tl,5,Ba2Mg3Tl2(CuO3)4
0.0,Ba-Fe-Mg-O-Tl,5,Ba2Mg3Tl2(FeO3)4
0.0,Ba-Mg-Ni-O-Tl,5,Ba2Mg3Tl2(NiO3)4
0.0,Ba-Mg-O-Sn-Tl,5,Ba2Mg3Tl2(SnO3)4
0.0,Ba-Mg-O-Tl-W,5,Ba2Mg3Tl2(WO3)4
1.4357000000000002,Al-Ba-Fe-Mg-O,5,Ba2MgAl2(Fe4O7)2
1.5540000000000005,Al-Ba-Fe-Mg-O,5,Ba2MgAl2(Fe4O7)2
0.7762000000000002,Ba-Bi-Mg-O-Sb,5,Ba2MgBiSbO6
1.1731000000000005,Ba-Co-Mg-Mo-O,5,Ba2MgCoMoO6
1.852,Ba-Co-Mg-O-W,5,Ba2MgCoWO6
0.9271000000000004,Ba-Co-Mg-O-W,5,Ba2MgCoWO6
1.7481999999999998,Ba-Cr-Mg-Mo-O,5,Ba2MgCrMoO6
0.9420000000000002,Ba-Cr-Mg-Mo-O,5,Ba2MgCrMoO6
1.1214999999999995,Ba-Cr-Mg-Mo-O,5,Ba2MgCrMoO6
0.1547,Ba-Cu-Mg-O-P,5,Ba2MgCu(PO4)2
0.246,Ba-Cu-Mg-O-P,5,Ba2MgCu(PO4)2
0.0,Ba-Br-Cu-Mg-O,5,Ba2MgCu3(BrO2)2
0.0,Ba-Cu-Hg-Mg-O,5,Ba2MgCuHgO4
0.0,Ba-Cu-Mg-O,4,Ba2MgCuO3
0.0,Ba-Cu-Mg-O-Te,5,Ba2MgCuTeO6
0.7394000000000007,Ba-Cu-Mg-O-W,5,Ba2MgCuWO6
3.5396,B-Ba-Fe-Mg-O-P,6,Ba2MgFe2B2(P2O9)2
3.8916,B-Ba-Fe-Mg-O-P,6,Ba2MgFe2B2(P2O9)2
3.5197,B-Ba-Fe-Mg-O-P,6,Ba2MgFe2B2(P2O9)2
0.8445000000000005,Ba-Fe-Mg-Mo-O,5,Ba2MgFeMoO6
1.2680999999999996,Ba-Fe-Mg-Mo-O,5,Ba2MgFeMoO6
0.6487000000000003,Ba-Fe-Mg-Mo-O,5,Ba2MgFeMoO6
0.8178999999999998,Ba-Fe-Mg-O-Re,5,Ba2MgFeReO6
1.786,Ba-Fe-Mg-O-W,5,Ba2MgFeWO6
1.9304,Ba-Fe-Mg-O-W,5,Ba2MgFeWO6
1.1892,Ba-Fe-Mg-O-W,5,Ba2MgFeWO6
0.0,Ba-Ge-Mg,3,Ba2MgGe2
3.6558,Ba-Ge-Mg-O,4,Ba2MgGe2O7
2.8864,Ba-H-Mg,3,Ba2MgH6
0.0,Ba-In-Mg,3,Ba2MgIn
1.1157000000000004,Ba-Mg-Mn-O-P,5,Ba2MgMn2(P2O7)2
1.9981,Ba-Mg-Mn-O-P,5,Ba2MgMn2(P2O7)2
1.1099000000000006,Ba-Mg-Mn-O-P,5,Ba2MgMn2(P2O7)2
1.1818,Ba-Mg-Mn-O,4,Ba2MgMn2O6
1.8439,Ba-Mg-Mn-O,4,Ba2MgMn2O6
0.9737,Ba-Mg-Mn-O,4,Ba2MgMn2O6
1.4403,Ba-Mg-Mn-O,4,Ba2MgMn2O6
0.0,Ba-Mg-Mn-O-Tl,5,Ba2MgMn3Tl2O10
0.0,Ba-Mg-Mn-O-Tl-Zn,6,Ba2MgMn3Tl2Zn2O10
0.4872999999999998,Ba-Mg-Mn-Mo-O,5,Ba2MgMnMoO6
1.4017000000000004,Ba-Mg-Mn-Mo-O,5,Ba2MgMnMoO6
0.2195,Ba-Mg-Mn-O,4,Ba2MgMnO4
0.0,Ba-Mg-Mn-O,4,Ba2MgMnO4
0.9752,Ba-Mg-Mn-O,4,Ba2MgMnO4
1.1658999999999995,Ba-Mg-Mn-O-W,5,Ba2MgMnWO6
1.7668,Ba-Mg-Mn-O-W,5,Ba2MgMnWO6
2.2648,Ba-Mg-Mo-O,4,Ba2MgMoO6
0.0,Ba-Mg-N,3,Ba2MgN2
0.0814000000000003,Ba-Mg-Nb-O,4,Ba2MgNb4O12
0.0,Ba-Mg-Nb-O,4,Ba2MgNb4O12
0.0,Ba-Mg-N-Nb-O,5,Ba2MgNb6(NO7)2
0.2667999999999995,Ba-Mg-N-Nb-O,5,Ba2MgNb6(NO7)2
1.1141,Ba-In-Mg-Nb-O,5,Ba2MgNbInO6
0.1274000000000006,Ba-In-Mg-Nb-O,5,Ba2MgNbInO6
0.0,Ba-Mg-Nb-O-V,5,Ba2MgNbVO6
1.7007,Ba-Mg-Mo-Ni-O,5,Ba2MgNiMoO6
0.4081999999999999,Ba-Mg-Mo-Ni-O,5,Ba2MgNiMoO6
1.2401,Ba-Mg-Mo-Ni-O,5,Ba2MgNiMoO6
1.3667000000000007,Ba-Mg-Ni-O-W,5,Ba2MgNiWO6
0.7763,Ba-Mg-Ni-O-W,5,Ba2MgNiWO6
2.534,Ba-Mg-Ni-O-W,5,Ba2MgNiWO6
3.3403000000000005,Ba-Mg-O,3,Ba2MgO3
0.0,Ba-Mg-O-Os,4,Ba2MgOsO6
0.0,Ba-Mg-O-Re,4,Ba2MgReO6
0.0,Ba-Mg-Si,3,Ba2MgSi2
4.4621,Ba-Mg-O-Si,4,Ba2MgSi2O7
4.4529000000000005,Ba-Mg-O-Si,4,Ba2MgSi2O7
0.0,Ba-Mg-O-Ti,4,Ba2MgTi2O6
0.9191000000000004,Ba-Mg-O-Ti,4,Ba2MgTi2O6
1.1396999999999995,Ba-Mg-O-Ti-Tl,5,Ba2MgTi3Tl2O10
1.3420000000000003,Ba-Mg-O-Ti-Tl,5,Ba2MgTi3Tl2O10
0.0,Ba-Mg-O-Ti,4,Ba2MgTiO4
0.1643999999999998,Ba-Mg-O-Ti,4,Ba2MgTiO4
0.0,Ba-Mg-Tl,3,Ba2MgTl
0.0,Ba-Cu-Mg-O-Tl,5,Ba2MgTl2CuO6
2.0537,Ba-Mg-O-U,4,Ba2MgUO6
2.0163999999999995,Ba-Mg-O-Si-V,5,Ba2MgV2(Si2O7)2
1.9509,Ba-Mg-O-Si-V,5,Ba2MgV2(Si2O7)2
1.5277000000000005,Ba-Mg-O-Si-V,5,Ba2MgV2(Si2O7)2
1.87,Ba-Fe-Mg-O-V,5,Ba2MgVFeO6
1.3931,Ba-Mg-Mo-O-V,5,Ba2MgVMoO6
0.0,Ba-Mg-Mo-O-V,5,Ba2MgVMoO6
1.4148,Ba-Mg-Mo-O-V,5,Ba2MgVMoO6
3.2231,Ba-Mg-O-W,4,Ba2MgWO6
2.6002,Ba-Mg-O-W-Zn,5,Ba2MgZnWO6
0.9383,Ba-Mg-O-W-Zn,5,Ba2MgZnWO6
1.4500000000000002,Ba-Mg-O-W-Zn,5,Ba2MgZnWO6
0.0,Ba-Mg-O-Ti-Zr,5,Ba2MgZrTiO6
1.2641999999999998,Ba-Mg-O-Ti-Zr,5,Ba2MgZrTiO6
0.0,Al-Ba-Mn-O-Tl,5,Ba2Mn2AlTlO7
0.0,As-Ba-Mn-O,4,Ba2Mn2As2O
0.0,Ba-Bi-Mn-O,4,Ba2Mn2Bi2O
4.063599999999999,Ba-Cl-F-Mn,4,Ba2Mn2ClF7
0.0,Ba-Mn-O,3,Ba2Mn2O5
0.0,Ba-Mn-O-Sb,4,Ba2Mn2Sb2O
0.0,Ba-F-Mn-O-Se,5,Ba2Mn2Se2OF2
0.0,Ba-Mn-O-Tl,4,Ba2Mn2TlO7
0.0,As-Ba-Mn-O,4,Ba2Mn3(AsO)2
0.0,Ba-Mn-O-Sb,4,Ba2Mn3(SbO)2
0.0,Al-Ba-Mn-O,4,Ba2Mn3AlO7
0.0,Al-Ba-Mn-O,4,Ba2Mn3AlO8
0.0,Ba-Mn-O,3,Ba2Mn3O7
0.0,Ba-Mn-O,3,Ba2Mn3O8
0.0,Ba-Mn-O-Tl,4,Ba2Mn3Tl2O10
0.0,Ba-Mn-O-Tl-Zn,5,Ba2Mn3Tl2Zn2O10
0.0,Ba-Mn-O-Tl-Zn,5,Ba2Mn4Tl2Zn3O12
0.0,Ba-Mn-O,3,Ba2Mn5O10
1.2653999999999996,Ba-Mn-Mo-O,4,Ba2MnMoO6
0.0,Ba-Mn-N,3,Ba2MnN2
0.0,Ba-Mn-Nb-O,4,Ba2MnNbO6
0.1857999999999999,Ba-Mn-Nb-O,4,Ba2MnNbO6
2.5225,Ba-Cl-F-Mn-Ni,5,Ba2MnNiClF7
1.4139000000000004,Ba-Mn-O,3,Ba2MnO3
1.5072,Ba-Mn-O,3,Ba2MnO3
0.0,Ba-Mn-O,3,Ba2MnO4
0.0,Ba-F-Mn-P,4,Ba2MnP2F
0.0,Ba-Mn-O-Re,4,Ba2MnReO6
0.0,Ba-Mn-O-Ru,4,Ba2MnRuO6
0.0,Ba-Mn-O-Sn,4,Ba2MnSnO6
0.9106,Ba-H-Mn-O-V,5,Ba2MnV2HO9
2.2267,Ba-Mn-O-W,4,Ba2MnWO6
0.0,Ba-Mo-O,3,Ba2Mo3O7
0.0,Ba-Mo-N,3,Ba2MoN3
3.225,Ba-F-Mo-O,4,Ba2MoO3F4
0.0,Ba-N,2,Ba2N
1.1077,Ba-Cl-N,3,Ba2NCl
1.0924,Ba-F-N,3,Ba2NF
0.0,Ba-F-N,3,Ba2NF
0.6992000000000003,Ba-F-N,3,Ba2NF
0.3820999999999999,Ba-F-N,3,Ba2NF
0.2517999999999999,Ba-N-O,3,Ba2NO6
0.0,Ba-Cu-Na-O,4,Ba2Na(CuO2)3
0.0,As-Ba-Fe-Na,4,Ba2Na(FeAs)6
0.3005,Ba-Na-Ni-O,4,Ba2Na(NiO2)3
0.0,As-Ba-Na-Sn,4,Ba2Na(SnAs)6
4.6933,B-Ba-H-Na-O,5,Ba2Na2B10H2O19
2.4777,Ba-Na-O,3,Ba2Na2O3
1.2453,Ba-Na-O-S-U,5,Ba2Na2U(S2O)2
0.4504000000000001,Ba-Cu-Na-S,4,Ba2NaCu3S5
2.2417,Ba-I-Na-O,4,Ba2NaIO6
0.0,Ba-In-Na,3,Ba2NaIn
1.7800000000000002,Ba-La-Na-O-Ti,5,Ba2NaLaTi4O12
0.0,Ba-Mg-Na-O-Re,5,Ba2NaMgReO6
0.0,Ba-Mn-Na-O,4,Ba2NaMnO6
0.0,Ba-Na-O,3,Ba2NaO
0.0,Ba-Na-O-Os,4,Ba2NaOsO6
1.8688,Ba-Na-O-Re,4,Ba2NaReO6
0.0,Ba-Na-O-U,4,Ba2NaUO6
0.0,Ba-Nb-O,3,Ba2Nb5O9
2.1563,Ba-Nb-O-Te,4,Ba2Nb6Te2O21
0.0,Ba-Nb-O,3,Ba2Nb8O11
2.0586,Ba-Bi-Nb-O,4,Ba2NbBiO6
1.5345999999999995,Ba-Co-Nb-O,4,Ba2NbCoO6
0.4928999999999996,Ba-Cl-Cu-Nb-O-Pb,6,Ba2NbCu2Pb2ClO8
1.5316,Ba-Fe-Nb-O,4,Ba2NbFeO6
1.6905999999999994,Ba-Fe-Nb-O,4,Ba2NbFeO6
0.0,Ba-Fe-Nb-O,4,Ba2NbFeO6
3.3486,Ba-In-Nb-O,4,Ba2NbInO6
1.9548,Ba-N-Nb,3,Ba2NbN3
0.0,Ba-Nb-O,3,Ba2NbO
2.9847,Ba-F-Nb-O-P,5,Ba2NbP2O9F
0.8889,Ba-Nb-O-Rh,4,Ba2NbRhO6
0.0,Ba-Nb-O-V,4,Ba2NbVO6
0.0,Ba-Cu-Nd-O,4,Ba2Nd(CuO2)3
0.0,Al-B-Ba-Nd-O,5,Ba2Nd2Al3(B4O9)3
0.3629000000000002,Ba-Co-Nd-O,4,Ba2Nd2Co4O11
0.0,Ba-Co-Nd-O,4,Ba2Nd2Co4O11
0.0,Ba-Co-Fe-Nd-O,5,Ba2Nd2Fe(CoO4)3
0.0,Ba-Co-Fe-Nd-O,5,Ba2Nd2Fe3CoO12
0.0,Ba-Fe-Nd-O,4,Ba2Nd2Fe4O11
1.0606999999999998,Ba-Fe-Mg-Nd-O,5,Ba2Nd2Mg(Fe2O5)2
0.6644000000000001,Ba-Fe-Mg-Nd-O,5,Ba2Nd2Mg(Fe2O5)2
1.5235999999999996,Ba-Fe-Mg-Nd-O,5,Ba2Nd2Mg(Fe2O5)2
0.0,Ba-Co-Mg-Nd-O,5,Ba2Nd2MgCo4O11
0.1035000000000003,B-Ba-Cu-Mg-Nd-O,6,Ba2Nd2MgCu2(BO5)2
0.0,Ba-Cu-Nd-O-Ti,5,Ba2Nd2Ti2Cu2O11
0.4963999999999995,Ba-Cu-Mg-Nd-O,5,Ba2Nd4Mg(CuO5)2
3.4133000000000004,Al-Ba-Nd-O,4,Ba2NdAlO5
1.876,Ba-Bi-Nd-O,4,Ba2NdBiO6
1.6830000000000005,Ba-Bi-Nd-O,4,Ba2NdBiO6
0.0,Ba-Co-Cu-Nd-O,5,Ba2NdCoCu2O7
0.0,Ba-Cu-Hg-Nd-O,5,Ba2NdCu2HgO7
0.0,Ba-Cu-Nd-O,4,Ba2NdCu3O7
0.4175999999999993,Ba-Cu-Dy-Nd-O-Ti,6,Ba2NdDyTi2Cu2O11
1.8105,Ba-Ga-Nd-S,4,Ba2NdGaS5
0.0,Ba-Ir-Nd-O,4,Ba2NdIrO6
2.5241,Ba-Bi-Mg-Nd-O,5,Ba2NdMgBiO6
1.6575000000000002,Ba-Bi-Mg-Nd-O,5,Ba2NdMgBiO6
0.0,Ba-Cu-Mg-Nd-O,5,Ba2NdMgCu3O7
2.4982,Ba-Mg-Mo-Nd-O,5,Ba2NdMgMoO6
0.0,Ba-Cu-Mg-Nb-Nd-O,6,Ba2NdMgNb(CuO4)2
0.8567,Ba-Cu-Mg-Nb-Nd-O,6,Ba2NdMgNb(CuO4)2
0.0,Ba-Mg-Nb-Nd-O,5,Ba2NdMgNbO6
0.0,Ba-Mg-Nd-O-Ru,5,Ba2NdMgRuO6
2.7145,Ba-Mg-Nd-O-Sb,5,Ba2NdMgSbO6
2.8038000000000003,Ba-Mg-Nd-O-Sb,5,Ba2NdMgSbO6
1.6060000000000003,Ba-Mg-Nd-O-Sb,5,Ba2NdMgSbO6
1.0952000000000002,Ba-Mo-Nd-O,4,Ba2NdMoO6
0.0,Ba-Mo-Nd-O,4,Ba2NdMoO6
0.0,Ba-Cu-Nb-Nd-O,5,Ba2NdNb(CuO4)2
2.85,Ba-Nb-Nd-O,4,Ba2NdNbO6
2.9872999999999994,Ba-Nb-Nd-O,4,Ba2NdNbO6
3.4662,Ba-Nd-O-Pa,4,Ba2NdPaO6
0.0,Ba-Nd-O-Pu,4,Ba2NdPuO6
0.0,Ba-Nd-O-Re,4,Ba2NdReO6
0.1257999999999999,Ba-Nd-O-Ru,4,Ba2NdRuO6
0.1501000000000001,Ba-Nd-O-Ru,4,Ba2NdRuO6
3.6649,Ba-Nd-O-Sb,4,Ba2NdSbO6
3.7321,Ba-Nd-O-Sb,4,Ba2NdSbO6
3.3164,Ba-Nd-O-Ta,4,Ba2NdTaO6
3.4981,Ba-Nd-O-Ta,4,Ba2NdTaO6
0.0,Ba-Cu-Nd-O-Tl,5,Ba2NdTlCu2O7
0.8979999999999997,Ba-Nd-O-U,4,Ba2NdUO6
1.6381,Ba-Nd-O-V,4,Ba2NdVO6
0.0,Ba-Nd-O-W,4,Ba2NdWO6
0.0,Ba-N-Ni-O,4,Ba2Ni(NO2)6
3.5948,Ba-Cl-F-Ni,4,Ba2Ni2ClF7
4.6348,Ba-F-Ni,3,Ba2Ni3F10
0.0,Ba-N-Ni,3,Ba2Ni3N2
0.0,Ba-Ni-O,3,Ba2Ni3O7
0.0,Ba-Ni-O,3,Ba2Ni3O8
0.0,Ba-Ge-Ni,3,Ba2Ni5Ge4
4.4443,Ba-F-Ni,3,Ba2Ni7F18
0.7181,Ba-F-Ni,3,Ba2NiF6
2.3514,Ba-Mo-Ni-O,4,Ba2NiMoO6
0.0,Ba-N-Ni,3,Ba2NiN2
0.0,Ba-Ni-O-Os,4,Ba2NiOsO6
0.0,Ba-Ni-O-Te,4,Ba2NiTeO6
3.3409,Ba-Ni-O-W,4,Ba2NiWO6
0.0,Ba-O-Os,3,Ba2OsO4
1.2602000000000002,Ba-Cl-P,3,Ba2PCl
3.3095000000000003,Ba-In-O-Pa,4,Ba2PaInO6
1.2232000000000005,Ba-O-Pb,3,Ba2PbO4
0.0,Ba-Pd,2,Ba2Pd
0.0,Ba-F-O-Pd,4,Ba2Pd(OF)2
0.0,Ba-O-Pd,3,Ba2Pd2O5
1.5301,Ba-F-Pd,3,Ba2PdF6
0.0,Ba-N-Pd,3,Ba2PdN2
0.0,Ba-O-Pd,3,Ba2PdO3
0.0,Ba-Cu-O-Pr,4,Ba2Pr(CuO2)3
0.0,Ba-Cu-O-Pr,4,Ba2Pr(CuO2)4
0.0,Ba-Co-O-Pr,4,Ba2Pr2Co4O11
0.0291999999999994,Ba-Cu-Mg-O-Pr,5,Ba2Pr4Mg(CuO5)2
0.1874000000000002,Ba-Cu-Mg-O-Pr,5,Ba2Pr4Mg(CuO5)2
0.1182999999999996,Ba-Cu-Mg-O-Pr,5,Ba2Pr4Mg(CuO5)2
1.7599999999999998,Ba-Bi-O-Pr,4,Ba2PrBiO6
1.9086000000000003,Ba-Bi-O-Pr,4,Ba2PrBiO6
0.0,Ba-Co-Cu-O-Pr,5,Ba2PrCoCu2O7
0.0,Ba-Cu-O-Pr,4,Ba2PrCu3O7
0.0,Ba-Cu-O-Pr,4,Ba2PrCu3O8
6.2167,Ba-F-Pr,3,Ba2PrF7
1.817,Ba-Ga-Pr-S,4,Ba2PrGaS5
0.0,Ba-Hf-O-Pr,4,Ba2PrHfO6
0.0,Ba-Ir-O-Pr,4,Ba2PrIrO6
0.0,Ba-Cu-Mg-O-Pr,5,Ba2PrMg(CuO2)4
0.0,Ba-Cu-Mg-O-Pr,5,Ba2PrMgCu3O7
0.0,Ba-Mg-Nb-O-Pr,5,Ba2PrMgNbO6
0.0,Ba-Mg-O-Pr-Ru,5,Ba2PrMgRuO6
1.6098000000000003,Ba-Mg-O-Pr-Sb,5,Ba2PrMgSbO6
2.7181,Ba-Mg-O-Pr-Sb,5,Ba2PrMgSbO6
0.0,Ba-Cu-Nb-O-Pr,5,Ba2PrNb(CuO4)2
2.9791000000000003,Ba-Nb-O-Pr,4,Ba2PrNbO6
2.8578,Ba-Nb-O-Pr,4,Ba2PrNbO6
3.0394,Ba-Nb-O-Pr,4,Ba2PrNbO6
3.4661000000000004,Ba-O-Pa-Pr,4,Ba2PrPaO6
0.0,Ba-O-Pb-Pr,4,Ba2PrPbO6
0.0,Ba-O-Pr-Pt,4,Ba2PrPtO6
0.1345,Ba-O-Pr-Ru,4,Ba2PrRuO6
0.1636000000000002,Ba-O-Pr-Ru,4,Ba2PrRuO6
0.3306,Ba-O-Pr-Ru,4,Ba2PrRuO6
3.684,Ba-O-Pr-Sb,4,Ba2PrSbO6
3.712,Ba-O-Pr-Sb,4,Ba2PrSbO6
0.0,Ba-O-Pr-Se,4,Ba2PrSeO6
0.0,Ba-O-Pr-Sn,4,Ba2PrSnO6
3.3056,Ba-O-Pr-Ta,4,Ba2PrTaO6
3.4861000000000004,Ba-O-Pr-Ta,4,Ba2PrTaO6
0.0,Ba-O-Pr-Ti,4,Ba2PrTiO6
1.6605000000000003,Ba-O-Pr-V,4,Ba2PrVO6
0.0,Ba-O-Pr-W,4,Ba2PrWO6
0.0,Ba-O-Pr-Zr,4,Ba2PrZrO6
0.0,Au-Ba-Pt,3,Ba2PtAu
0.0,Ba-In-O-Pu,4,Ba2PuInO6
0.0,Ba-Mn-O-Pu,4,Ba2PuMnO6
0.0,Ba-O-Pa-Pu,4,Ba2PuPaO6
0.4379999999999997,Ba-O-Pb-Pu,4,Ba2PuPbO6
0.0,Ba-O-Pu-Ta,4,Ba2PuTaO6
0.2333999999999996,Ba-O-Pu-Ti,4,Ba2PuTiO6
0.6585000000000001,Ba-O-Pu-Zn,4,Ba2PuZnO6
0.0,Ba-N-Re,3,Ba2ReN3
0.0,Ba-Ni-O-Re,4,Ba2ReNiO6
0.0,Ba-O-Re,3,Ba2ReO5
0.0,Ba-O-Ru,3,Ba2Ru7O18
0.3923999999999998,Ba-N-Ru,3,Ba2RuN2
0.0,Ba-N-Ru,3,Ba2RuN3
0.0,Ba-O-Ru,3,Ba2RuO4
2.3669999999999995,Ba-F-O-S,4,Ba2S2O3F2
1.6147999999999998,Ba-S,2,Ba2S3
0.0,Ba-Sb,2,Ba2Sb
0.0,Ba-O-Sb,3,Ba2Sb2O5
0.9781999999999996,Ba-O-Sb,3,Ba2Sb2O7
0.0,Ba-O-Sb,3,Ba2Sb3O7
0.0,Ba-O-Sb,3,Ba2Sb3O8
0.5956999999999999,Au-Ba-Sb,3,Ba2SbAu
3.3548,B-Ba-O-Sc,4,Ba2Sc2B4O11
3.2206,Ba-O-Sc,3,Ba2Sc2O5
2.7100000000000004,Ba-O-Sc,3,Ba2Sc2O5
1.5335,Ba-O-Sc,3,Ba2Sc2O5
1.9972,Al-Ba-O-Sc,4,Ba2ScAlO5
2.0282000000000004,Ba-Cu-O-Sc,4,Ba2ScCuO4
0.0,Ba-Ir-O-Sc,4,Ba2ScIrO6
2.5719,Ba-Nb-O-Sc,4,Ba2ScNbO6
3.5461,Ba-F-O-Sc,4,Ba2ScO3F
0.0,Ba-O-Os-Sc,4,Ba2ScOsO6
3.3981000000000003,Ba-O-Pa-Sc,4,Ba2ScPaO6
0.0,Ba-O-Re-Sc,4,Ba2ScReO6
0.0,Ba-O-Sb-Sc,4,Ba2ScSbO6
3.0173000000000005,Ba-O-Sc-Ta,4,Ba2ScTaO6
2.1294000000000004,Ba-Bi-O-Sc-Ti,5,Ba2ScTi2BiO9
0.8326000000000002,Ba-O-Sc-U,4,Ba2ScUO6
0.0,Ba-Si,2,Ba2Si
0.0,Au-Ba-Si,3,Ba2Si3Au
3.2348,Ba-Ge-O-Si,4,Ba2Si3Ge5O18
0.0,Ba-Ni-Si,3,Ba2Si3Ni
2.8816,Ba-N-Si,3,Ba2Si5N8
4.6319,Ba-O-Si,3,Ba2SiO4
2.2783999999999995,Ba-Se-Si,3,Ba2SiSe4
0.0,Ba-Cu-O-Sm,4,Ba2Sm(CuO2)3
0.0,Ba-Cu-O-Sm,4,Ba2Sm(CuO2)4
0.0,Ba-Fe-O-Sm,4,Ba2Sm2Fe4O11
0.0,Ba-Cu-O-Sm-Ti,5,Ba2Sm2Ti2Cu2O11
1.8538,Ba-Bi-O-Sm,4,Ba2SmBiO6
0.0,Ba-Co-Cu-O-Sm,5,Ba2SmCoCu2O7
0.0,Ba-Cr-O-Sm,4,Ba2SmCrO6
0.0,Ba-Cu-O-Sm,4,Ba2SmCu3O7
0.0,Ba-Fe-O-Sm,4,Ba2SmFeO6
0.0,Ba-Cu-Mg-O-Sm,5,Ba2SmMgCu3O7
2.216600000000001,Ba-Mg-Mo-O-Sm,5,Ba2SmMgMoO6
0.0,Ba-Mg-Nb-O-Sm,5,Ba2SmMgNbO6
1.4005999999999998,Ba-Mg-O-Sb-Sm,5,Ba2SmMgSbO6
2.4782000000000006,Ba-Mg-O-Sb-Sm,5,Ba2SmMgSbO6
0.2517000000000005,Ba-Mg-O-Sb-Sm,5,Ba2SmMgSbO6
0.0,Ba-Mn-O-Sm,4,Ba2SmMnO6
0.9085,Ba-Mo-O-Sm,4,Ba2SmMoO6
0.0,Ba-Mo-O-Sm,4,Ba2SmMoO6
2.8503,Ba-Nb-O-Sm,4,Ba2SmNbO6
0.0705,Ba-O-Os-Sm,4,Ba2SmOsO6
3.4592000000000005,Ba-O-Pa-Sm,4,Ba2SmPaO6
0.0,Ba-O-Re-Sm,4,Ba2SmReO6
3.6054,Ba-O-Sb-Sm,4,Ba2SmSbO6
0.0,Ba-O-Se-Sm,4,Ba2SmSeO6
3.3634000000000004,Ba-O-Sm-Ta,4,Ba2SmTaO6
0.8488999999999995,Ba-O-Sm-U,4,Ba2SmUO6
1.6332,Ba-O-Sm-V,4,Ba2SmVO6
0.0,Ba-O-Sm-W,4,Ba2SmWO6
0.0710999999999999,Ba-O-Sn,3,Ba2Sn3O7
0.0374000000000003,Ba-Hg-Sn,3,Ba2SnHg
0.2879999999999998,Ba-N-Sn,3,Ba2SnN2
0.1934,Ba-O-Sn,3,Ba2SnO16
2.4422,Ba-O-Sn,3,Ba2SnO4
1.1981000000000002,Ba-O-Sn-W,4,Ba2SnWO6
5.309799999999999,Ba-O-P-Sr,4,Ba2Sr(PO4)2
1.7732,Ba-Ca-O-Sr-Ti,5,Ba2Sr2CaTi5O15
0.0,Ba-Co-Cu-O-Sr,5,Ba2Sr2Co(CuO4)3
0.0,Ba-Cu-La-O-Sr,5,Ba2Sr2La2Cu6O13
0.0,Ba-Cu-O-Sr-Y,5,Ba2Sr2Y2Cu6O13
4.747299999999999,Ba-Ca-Mg-O-Si-Sr,6,Ba2Sr3CaMg2(SiO4)4
4.755699999999999,Ba-Ca-Mg-O-Si-Sr,6,Ba2Sr3CaMg2(SiO4)4
0.0,Ba-Co-Cu-O-Sr,5,Ba2Sr6Co3Cu5O24
0.0,Ba-Co-Cu-O-Sr,5,Ba2Sr6Co5(CuO8)3
1.0421,Ba-Mn-O-Sr-Ti,5,Ba2Sr6Ti7MnO24
0.8369000000000004,B-Ba-Sr,3,Ba2SrB18
4.8951,Ba-Ca-Mg-O-Si-Sr,6,Ba2SrCa3Mg2(SiO4)4
0.6776,Ba-Cr-O-Sr,4,Ba2SrCrO6
0.0,Ba-Fe-O-Sr,4,Ba2SrFeO6
3.6619,Ba-I-Sr,3,Ba2SrI6
2.9057,Ba-I-Sr,3,Ba2SrI6
0.0,Ba-Ir-O-Sr,4,Ba2SrIrO6
1.7839999999999998,Ba-Mg-O-Sr-W,5,Ba2SrMgWO6
1.6472000000000002,Ba-Mg-O-Sr-W,5,Ba2SrMgWO6
0.0,Ba-Mn-O-Sr,4,Ba2SrMnO6
0.0,Ba-N-Sr,3,Ba2SrN2
0.0,Ba-Np-Sr,3,Ba2SrNp
2.3123000000000005,Ba-O-Se-Sr,4,Ba2SrSeO6
3.1291999999999995,Ba-O-Sr-Te,4,Ba2SrTeO6
1.8073,Ba-O-Sr-Ti,4,Ba2SrTi3O9
2.4154,Ba-O-Sr-Tm,4,Ba2SrTm6O12
2.2601000000000004,Ba-O-Sr-U,4,Ba2SrUO6
2.2553,Ba-O-Sr-U,4,Ba2SrUO6
2.0496,Ba-O-Sr-U,4,Ba2SrUO6
3.7201,Ba-O-Sr-V,4,Ba2SrV2O8
3.1754,Ba-O-Sr-W,4,Ba2SrWO6
3.2504,Ba-O-Sr-W,4,Ba2SrWO6
3.3505000000000003,Ba-O-Sr-W,4,Ba2SrWO6
0.5853999999999995,Ba-Cu-O-Pt-Sr-Y,6,Ba2SrY2Cu2PtO10
2.9228999999999994,Ba-O-Ta,3,Ba2Ta2O7
2.9092,Ba-O-Ta,3,Ba2Ta2O7
2.8259000000000003,Ba-O-Ta-Te,4,Ba2Ta6Te2O21
2.5855,Ba-Bi-O-Ta,4,Ba2TaBiO6
2.6385,Ba-Bi-O-Ta,4,Ba2TaBiO6
2.6759000000000004,Ba-Bi-O-Ta,4,Ba2TaBiO6
1.5327999999999995,Ba-Co-O-Ta,4,Ba2TaCoO6
0.5034000000000001,Ba-Cl-Cu-O-Pb-Ta,6,Ba2TaCu2Pb2ClO8
1.8623,Ba-Fe-O-Ta,4,Ba2TaFeO6
3.9459,Ba-In-O-Ta,4,Ba2TaInO6
0.0,Ba-Mn-O-Ta,4,Ba2TaMnO6
2.0155000000000003,Ba-N-Ta,3,Ba2TaN3
2.241,Ba-O-Ta-Tl,4,Ba2TaTlO6
0.0,Ba-Co-O-Tb,4,Ba2Tb2Co4O11
0.0,Ba-Co-Mg-O-Tb,5,Ba2Tb2MgCo4O11
0.0,Ba-Cu-Mg-O-Tb-Ti,6,Ba2Tb2MgTi2Cu2O11
0.2513999999999998,Ba-Mn-O-Tb,4,Ba2Tb2Mn4O11
0.0,Ba-Cu-O-Tb-Ti,5,Ba2Tb2Ti2Cu2O11
1.8106,Ba-Bi-O-Tb,4,Ba2TbBiO6
1.7302,Ba-Bi-O-Tb,4,Ba2TbBiO6
0.0,Ba-Ce-O-Tb,4,Ba2TbCeO6
0.0,Ba-Hf-O-Tb,4,Ba2TbHfO6
0.0,Ba-Ir-O-Tb,4,Ba2TbIrO6
1.8091000000000004,Ba-Bi-Mg-O-Tb,5,Ba2TbMgBiO6
2.5609,Ba-Bi-Mg-O-Tb,5,Ba2TbMgBiO6
1.3710000000000004,Ba-Mg-O-Sb-Tb,5,Ba2TbMgSbO6
2.5178,Ba-Mg-O-Sb-Tb,5,Ba2TbMgSbO6
0.4392000000000005,Ba-Mg-O-Sb-Tb,5,Ba2TbMgSbO6
0.0,Ba-Mo-O-Tb,4,Ba2TbMoO6
2.8523000000000005,Ba-Nb-O-Tb,4,Ba2TbNbO6
2.9923,Ba-Nb-O-Tb,4,Ba2TbNbO6
3.4649,Ba-O-Pa-Tb,4,Ba2TbPaO6
0.0,Ba-O-Pr-Tb,4,Ba2TbPrO6
0.0,Ba-O-Re-Tb,4,Ba2TbReO6
3.5072,Ba-O-Sb-Tb,4,Ba2TbSbO6
0.0,Ba-O-Sn-Tb,4,Ba2TbSnO6
3.5127999999999995,Ba-O-Ta-Tb,4,Ba2TbTaO6
3.371,Ba-O-Ta-Tb,4,Ba2TbTaO6
1.6795,Ba-O-Tb-W,4,Ba2TbWO6
0.0,Ba-O-Tb-W,4,Ba2TbWO6
0.0,Ba-O-Tb-Zr,4,Ba2TbZrO6
0.0,Ba-O-Tc,3,Ba2Tc2O5
1.783,Ba-O-Te,3,Ba2TeO
3.4372,Ba-O-P-Te,4,Ba2TeP2O9
0.9000000000000004,Ba-Cu-S-Th,4,Ba2ThCu2S5
0.7546000000000004,Ba-Cu-Se-Th,4,Ba2ThCu2Se5
1.3091000000000004,Ba-S-Th,3,Ba2ThS6
3.7129,Ba-Ge-O-Ti,4,Ba2Ti(GeO4)2
3.7274,Ba-O-Si-Ti,4,Ba2Ti(SiO4)2
2.342,Ba-O-Ti,3,Ba2Ti11O24
0.0,Al-Ba-O-Ti-Tl,5,Ba2Ti2AlTlO7
0.0,As-Ba-Fe-O-Ti,5,Ba2Ti2Fe2As4O
0.0,Ba-O-Ti,3,Ba2Ti2O5
0.1315999999999997,Ba-O-Ti-Tl,4,Ba2Ti2TlO7
0.0,Al-Ba-O-Ti,4,Ba2Ti3AlO7
0.0,Al-Ba-O-Ti,4,Ba2Ti3AlO8
0.0,Ba-O-Ti,3,Ba2Ti3O7
0.7315,Ba-O-Ti,3,Ba2Ti3O8
0.5450000000000004,Ba-O-Ti-Tl,4,Ba2Ti3Tl2O10
0.0,Ba-O-Ti-Tl-Zn,5,Ba2Ti3Tl2Zn2O10
1.0861999999999998,Ba-Fe-O-Ti,4,Ba2Ti4Fe2O13
0.0,Ba-O-Ti,3,Ba2Ti4O13
0.0,Ba-O-Ti-Tl-Zn,5,Ba2Ti4Tl2Zn3O12
1.3552999999999995,Ba-Bi-O-Ti,4,Ba2Ti5(Bi2O9)2
1.7616,Ba-N-O-Ti,4,Ba2Ti6N2O11
1.8464,Ba-N-O-Ti,4,Ba2Ti6N2O11
1.4450000000000005,Ba-N-O-Ti,4,Ba2Ti6N2O11
2.0878,Ba-N-O-Ti,4,Ba2Ti6N2O11
0.0,Ba-O-Ti,3,Ba2Ti6O13
0.0,Ba-Fe-O-Ti,4,Ba2TiFeO6
1.881,Ba-O-Ti,3,Ba2TiO4
3.6382,Ba-F-O-Ti,4,Ba2TiOF6
0.0,Ba-S-Ti-V,4,Ba2TiVS6
2.4953000000000003,Ba-H-O-Tl,4,Ba2Tl(HO)7
0.0,Ba-Bi-O-Tl,4,Ba2Tl2Bi3O10
0.0,Ba-Co-O-Tl,4,Ba2Tl2Co3O10
0.0,Ba-Cr-O-Tl,4,Ba2Tl2Cr3O10
0.0,Ba-Cu-Hg-O-Tl,5,Ba2Tl2Cu2HgO8
0.0,Ba-Cu-O-Tl,4,Ba2Tl2CuO6
0.0,Ba-Fe-O-Tl,4,Ba2Tl2Fe3O10
0.0,Ba-Mo-O-Tl,4,Ba2Tl2Mo3O10
0.0,Ba-Ni-O-Tl,4,Ba2Tl2Ni3O10
0.0,Ba-O-Sb-Tl,4,Ba2Tl2Sb3O10
0.0,Ba-O-Sn-Tl,4,Ba2Tl2Sn3O10
0.0,Ba-O-Tl-W,4,Ba2Tl2W3O10
0.0,Ba-Co-O-Tl-Zn,5,Ba2Tl2Zn2Co3O10
0.0,Ba-Cr-O-Tl-Zn,5,Ba2Tl2Zn2Cr3O10
0.0,Ba-Cu-O-Tl-Zn,5,Ba2Tl2Zn2Cu3O10
0.0,Ba-Fe-O-Tl-Zn,5,Ba2Tl2Zn2Fe3O10
0.0,Ba-Ni-O-Tl-Zn,5,Ba2Tl2Zn2Ni3O10
0.0,Ba-O-Sn-Tl-Zn,5,Ba2Tl2Zn2Sn3O10
0.0,Ba-Co-O-Tl-Zn,5,Ba2Tl2Zn3(CoO3)4
0.0,Ba-Cu-O-Tl-Zn,5,Ba2Tl2Zn3(CuO3)4
0.0,Ba-Fe-O-Tl-Zn,5,Ba2Tl2Zn3(FeO3)4
0.0,Ba-Ni-O-Tl-Zn,5,Ba2Tl2Zn3(NiO3)4
0.0,Ba-O-Sn-Tl-Zn,5,Ba2Tl2Zn3(SnO3)4
0.0,Ba-O-Tl-W-Zn,5,Ba2Tl2Zn3(WO3)4
0.0,Ba-Cr-O-Tl-Zn,5,Ba2Tl2Zn3Cr4O12
0.0,Ba-Bi-O-Tl,4,Ba2TlBi2O7
0.0,Ba-Cd-Tl,3,Ba2TlCd
0.0,Ba-Co-O-Tl,4,Ba2TlCo2O7
0.0,Ba-Cu-O-Tl,4,Ba2TlCu3O7
0.0,Ba-Cu-Hg-O-Tl,5,Ba2TlCuHgO5
0.0,Ba-Cu-O-Tl,4,Ba2TlCuO5
0.0,Ba-Fe-O-Tl,4,Ba2TlFe2O7
0.0,Ba-Hg-Tl,3,Ba2TlHg
0.0,Ba-Mo-O-Tl,4,Ba2TlMo2O7
0.0,Ba-Ni-O-Tl,4,Ba2TlNi2O7
0.0,Ba-O-Sb-Tl,4,Ba2TlSb2O7
0.0,Ba-O-Sb-Tl,4,Ba2TlSbO6
0.0,Ba-O-Sn-Tl,4,Ba2TlSn2O7
0.0,Ba-O-Tl-V,4,Ba2TlV2O7
0.0,Ba-O-Tl-W,4,Ba2TlW2O7
0.0,Ba-Tl-Zn,3,Ba2TlZn
0.0,Ba-Cu-O-Tm,4,Ba2Tm(CuO2)4
0.0,Al-Ba-N-O-Si-Tm,6,Ba2Tm2Al3Si5N11O3
1.6683,Ba-O-Tm-Zn,4,Ba2Tm2Zn8O13
0.0,Ba-Cu-O-Tm,4,Ba2TmCu3O7
0.0,Ba-Cu-Mg-O-Tm,5,Ba2TmMg(CuO2)4
0.2250999999999998,Ba-Cu-Mg-O-Tm,5,Ba2TmMgCu3O7
0.0,Ba-Cu-Mg-O-Tm,5,Ba2TmMgCu3O7
0.0,Ba-Mg-Nb-O-Tm,5,Ba2TmMgNbO6
0.0,Ba-Mg-O-Ru-Tm,5,Ba2TmMgRuO6
0.0,Ba-Mo-O-Tm,4,Ba2TmMoO6
2.8502,Ba-Nb-O-Tm,4,Ba2TmNbO6
3.4494,Ba-O-Pa-Tm,4,Ba2TmPaO6
0.0,Ba-O-Re-Tm,4,Ba2TmReO6
0.0645000000000002,Ba-O-Ru-Tm,4,Ba2TmRuO6
3.4065000000000003,Ba-O-Ta-Tm,4,Ba2TmTaO6
2.1158,Ba-O-P-U,4,Ba2U(PO5)2
2.1977,Ba-O-P-U,4,Ba2U(PO5)2
0.0,Ba-O-U,3,Ba2U2O3
0.3482000000000003,Ba-O-U,3,Ba2U2O7
1.7398999999999996,Ba-Be-O-U,4,Ba2UBeO6
1.8464,Ba-Cd-O-U,4,Ba2UCdO6
0.0,Ba-Co-U,3,Ba2UCo
0.0,Ba-Co-O-U,4,Ba2UCoO6
0.9356999999999998,Ba-Cr-O-U,4,Ba2UCrO6
0.0,Ba-Cu-S-U,4,Ba2UCu2S5
0.0,Ba-Cu-Se-U,4,Ba2UCu2Se5
0.0730999999999992,Ba-Cu-O-U,4,Ba2UCuO6
0.0,Ba-Cu-O-U,4,Ba2UCuO6
0.5156000000000001,Ba-Fe-O-U,4,Ba2UFeO6
0.6334000000000009,Ba-Ge-O-U,4,Ba2UGeO6
1.6345,Ba-Hg-O-U,4,Ba2UHgO6
0.7102000000000004,Ba-In-O-U,4,Ba2UInO6
0.0613000000000001,Ba-Mn-O-U,4,Ba2UMnO6
1.6246,Ba-Ni-O-U,4,Ba2UNiO6
1.1945999999999994,Ba-O-Pb-U,4,Ba2UPbO6
0.0,Ba-S-U,3,Ba2US6
0.0,Ba-O-Ti-U,4,Ba2UTiO6
1.7862999999999998,Ba-O-U-Zn,4,Ba2UZnO6
2.6343,Ba-O-Si-V,4,Ba2V(SiO4)2
1.0395000000000003,Ba-Cl-Cu-O-V,5,Ba2V2CuClO7
0.7418,Ba-Cu-F-V,4,Ba2V2CuF12
2.2895,Ba-Fe-H-O-V,5,Ba2V2FeHO9
0.2999999999999999,Ba-Fe-O-V,4,Ba2V2FeO9
0.0,Ba-O-V,3,Ba2V2O5
0.2952999999999997,Ba-O-V,3,Ba2V2O5
0.0212000000000003,Ba-O-V,3,Ba2V2O5
1.9502,Ba-H-O-V,4,Ba2V3HO9
0.0,Ba-O-V,3,Ba2V3O7
0.0,Ba-O-V,3,Ba2V3O8
1.5728,Ba-O-V,3,Ba2V3O9
0.3759999999999999,Ba-H-O-P-V,5,Ba2V3P6HO22
1.1225,Ba-Bi-O-V,4,Ba2VBiO6
0.6976000000000001,Ba-Cu-F-V,4,Ba2VCu2F12
0.0,Ba-Fe-O-V,4,Ba2VFeO6
1.0389,Ba-Fe-O-V,4,Ba2VFeO6
0.4002999999999996,Ba-Mo-O-V,4,Ba2VMoO6
1.1814,Ba-N-V,3,Ba2VN3
1.2970000000000006,Ba-O-V,3,Ba2VO4
0.1322999999999999,Ba-O-P-V,4,Ba2VP2O11
0.0817000000000001,Ba-C-O-W,4,Ba2W(CO2)4
0.0,Ba-O-W,3,Ba2W3O7
0.0,Ba-O-W,3,Ba2W3O8
3.6497,Ba-F-O-W,4,Ba2WO3F4
2.9569,Ba-O-W,3,Ba2WO5
0.0,Ba-Cu-O-Y,4,Ba2Y(Cu2O3)2
0.0,Ba-Cu-O-Y,4,Ba2Y(CuO2)3
0.0,Ba-Cu-O-Y,4,Ba2Y(CuO2)4
2.1686,Bi-O-Sb,3,Bi3SbO7
0.0,Bi-Pt-Sb,3,Bi3SbPt2
0.0,Bi-Se,2,Bi3Se4
1.0710000000000002,Bi-Br-Se,3,Bi3Se4Br
0.0,Bi-S-Te,3,Bi3Te2S
2.4347000000000003,Bi-Cl-O-Te,4,Bi3Te4(ClO2)5
0.0,Bi-Pb-Te,3,Bi3Te5Pb
0.0,B-Bi-O,3,Bi4(BO4)3
0.5475999999999992,Bi-S-Te,3,Bi4(TeS)3
0.3925,Bi-Se-Te,3,Bi4(TeSe)3
0.3995999999999995,Bi-Se-Te,3,Bi4(TeSe)3