eg,chemsys,nelements,formula
2.7613000000000003,Dy-O-Ti,3,Dy2TiO5
3.0481,Dy-O-Ti,3,Dy2TiO5
3.2941000000000003,Dy-O-Ti,3,Dy2TiO5
3.1655,Dy-O-Ti,3,Dy2TiO5
0.0,Dy-Si-Ti,3,Dy2TiSi2
0.0,Dy-Tl,2,Dy2Tl
0.0,Ag-Dy-Tl,3,Dy2TlAg
0.0,Cd-Dy-Tl,3,Dy2TlCd
0.0,Dy-Hg-Tl,3,Dy2TlHg
0.0,Dy-In-Tl,3,Dy2TlIn
0.0,Dy-Tl-Zn,3,Dy2TlZn
0.0,Dy-O-V,3,Dy2V2O7
0.1947000000000001,Dy-O-V,3,Dy2V2O7
1.3296,Dy-Fe-O-V,4,Dy2VFeO6
1.7473999999999998,Dy-O-V,3,Dy2VO5
3.1434,Dy-O-W,3,Dy2W2O9
3.4083,Dy-O-W,3,Dy2WO6
3.7745,Dy-O-W,3,Dy2WO6
2.9144,Dy-O-W,3,Dy2WO6
0.0,Dy-O-Y,3,Dy2Y2O5
3.3865000000000003,Dy-O-Ta-Y,4,Dy2YTaO7
0.0,Dy-Zn,2,Dy2Zn17
0.0,Ag-Dy-Zn,3,Dy2ZnAg
0.0,Cu-Dy-Si-Zn,4,Dy2ZnCuSi2
0.0,Dy-Ga-Zn,3,Dy2ZnGa
0.0,Dy-Hg-Zn,3,Dy2ZnHg
0.0,Dy-In-Zn,3,Dy2ZnIn
0.0,Dy-Ir-Zn,3,Dy2ZnIr
0.0,Dy-Os-Zn,3,Dy2ZnOs
0.0,Dy-Pt-Zn,3,Dy2ZnPt
0.0,Dy-Rh-Zn,3,Dy2ZnRh
0.0,Dy-Ru-Zn,3,Dy2ZnRu
3.959400000000001,Dy-O-S-Te-Zn,5,Dy2ZnTe2(SO7)2
2.7425999999999995,Dy-O-Zr,3,Dy2Zr2O7
2.609700000000001,Dy-O-Zr,3,Dy2Zr2O7
2.1735,Dy-O-Zr,3,Dy2Zr8O19
0.0,Ag-Dy-Sn,3,Dy3(AgSn)4
0.0,Al-Dy-Fe,3,Dy3(Al2Fe)2
0.0,Al-Dy-Ni,3,Dy3(AlNi3)2
0.0,Co-Dy-Ge,3,Dy3(CoGe2)2
0.0,Cu-Dy-Ge,3,Dy3(CuGe)4
0.0,Cu-Dy-Si,3,Dy3(CuSi)4
0.0,Cu-Dy-Sn,3,Dy3(CuSn)4
0.0,Cu-Dy-Ga,3,Dy3(Ga2Cu)2
0.0,Dy-Ga-Ni,3,Dy3(GaNi3)2
0.0,Co-Dy-In,3,Dy3(In2Co)2
0.0,Dy-P-Pd,3,Dy3(P3Pd10)2
0.0,Dy-Pd-Si,3,Dy3(Si3Pd10)2
0.0,Dy-Ni-Si,3,Dy3(SiNi3)2
0.0,Al-Dy,2,Dy3Al
0.0,Al-Dy-H-Ni,4,Dy3Al2(Ni2H3)3
0.0,Al-C-Dy,3,Dy3AlC
0.0,Al-Co-Dy-S,4,Dy3AlCoS7
0.2077999999999997,Al-Dy-Fe-S,4,Dy3AlFeS7
0.0,Al-Dy-N,3,Dy3AlN
0.0,Al-Dy-Ni,3,Dy3AlNi8
0.0,Al-Dy-Ni-S,4,Dy3AlNiS7
0.0,As-Dy,2,Dy3As
0.0,B-Dy-Mo,3,Dy3B7Mo
0.0,B-Dy-W,3,Dy3B7W
3.7886,B-Dy-O-W,4,Dy3BWO9
0.0,Be-Cr-Dy-S,4,Dy3BeCrS7
0.0,Bi-Dy,2,Dy3Bi
0.0,Bi-Dy-O-Ru,4,Dy3Bi(Ru2O7)2
0.0,Co-Dy,2,Dy3Co
0.0,B-Co-Dy,3,Dy3Co11B4
0.0,Co-Dy-Si,3,Dy3Co2Si3
0.0,Co-Dy-Sn,3,Dy3Co6Sn5
0.2964000000000002,Cu-Dy-Sb,3,Dy3Cu3Sb4
1.8098,Cu-Dy-Ge-S,4,Dy3CuGeS7
1.800599999999999,Cu-Dy-S-Si,4,Dy3CuSiS7
0.0,Dy-Er,2,Dy3Er
0.0,Dy-Fe-Si,3,Dy3Fe2Si3
0.0,Dy-Fe-Si,3,Dy3Fe2Si7
0.0,B-Dy-Fe,3,Dy3FeB7
0.0,Dy-Ga,2,Dy3Ga
0.0,Ag-Dy-Ga,3,Dy3Ga8Ag3
0.0,Dy-Ga-Ir,3,Dy3Ga8Ir3
0.0,Dy-Ga-Rh,3,Dy3Ga8Rh3
0.0,Dy-Ga-Pd,3,Dy3Ga9Pd2
0.0,Dy-Ga-Pt,3,Dy3Ga9Pt2
0.0,C-Dy-Ga,3,Dy3GaC
0.0,Co-Dy-Ga-S,4,Dy3GaCoS7
0.4429999999999996,Dy-Fe-Ga-S,4,Dy3GaFeS7
0.0,Dy-Ga-Ni-S,4,Dy3GaNiS7
3.5913,Dy-Ga-O,3,Dy3GaO6
2.0615,Dy-Ga-S,3,Dy3GaS6
0.0,Dy-Ge-Ru,3,Dy3Ge3Ru2
0.0,Dy-Ge,2,Dy3Ge4
0.0,Dy-Ge,2,Dy3Ge5
0.0,Dy-Ge-O,3,Dy3GeO8
0.0,Dy-Hg,2,Dy3Hg
0.0,Dy-Ho,2,Dy3Ho
0.0,Dy-In,2,Dy3In
0.0,Dy-In,2,Dy3In5
0.0,C-Dy-In,3,Dy3InC
0.0,Dy-In-N,3,Dy3InN
0.0,Dy-Ir,2,Dy3Ir
0.0,Dy-Lu,2,Dy3Lu
0.0,Dy-Mg,2,Dy3Mg
1.0738,Cr-Dy-Mg-S,4,Dy3Mg2CrS8
0.0,Dy-Mg-Mn-S,4,Dy3Mg2MnS8
0.4982000000000002,Dy-Mg-Mo-S,4,Dy3Mg2MoS8
0.0,Dy-Mg-S-Ti,4,Dy3Mg2TiS8
0.0,Dy-Mg-S-V,4,Dy3Mg2VS8
0.0535000000000005,Dy-Mg-S-W,4,Dy3Mg2WS8
0.0,Dy-Ga-Mn-Si,4,Dy3Mn3Ga2Si
0.0,Al-Dy-Mn-S,4,Dy3MnAlS7
0.0,B-Dy-Mn,3,Dy3MnB7
2.0748,Dy-Nb-O,3,Dy3NbO7
2.816,Dy-Nb-O,3,Dy3NbO7
0.0,B-Dy-Ni,3,Dy3Ni13B2
0.0,B-Dy-Ni,3,Dy3Ni19B10
0.0,Dy-Ni,2,Dy3Ni2
0.0,B-Dy-Ni,3,Dy3Ni7B2
0.0,Dy-Ni-Pd,3,Dy3NiPd2
0.0,Dy-Os,2,Dy3Os
0.0,C-Dy-Pb,3,Dy3PbC
0.0,Dy-Pd,2,Dy3Pd2
0.0,Dy-Pd,2,Dy3Pd4
0.0,Dy-Pt,2,Dy3Pt
0.0,Dy-Pt,2,Dy3Pt4
0.0,B-Dy-Re,3,Dy3ReB7
0.0,Dy-O-Re,3,Dy3ReO7
0.0,Dy-Rh,2,Dy3Rh
0.0,Dy-Ru,2,Dy3Ru
0.0,Dy-Ru,2,Dy3Ru2
0.0,Dy-S,2,Dy3S4
3.6131,Dy-F-O-S,4,Dy3SOF5
0.5673000000000004,Au-Dy-Sb,3,Dy3Sb4Au3
0.3776000000000001,Dy-O-Sb,3,Dy3SbO3
2.7960000000000003,Dy-O-Sb,3,Dy3SbO7
0.0,Dy-S-Sc,3,Dy3Sc2S7
0.0,Dy-Se,2,Dy3Se4
0.0,C-Dy-Sn,3,Dy3SnC
1.9753000000000005,Dy-O-Ta,3,Dy3TaO7
1.9902,Dy-O-Ta,3,Dy3TaO7
3.0763000000000003,Dy-O-Ta,3,Dy3TaO7
3.4083,Dy-O-Ta,3,Dy3TaO7
0.0,Dy-Tl,2,Dy3Tl5
0.0,C-Dy-Tl,3,Dy3TlC
0.0,Dy-Tm,2,Dy3Tm
0.0,Dy-V,2,Dy3V
2.3987000000000003,Dy-H-O-V,4,Dy3VH3O8
0.0,Dy-Y,2,Dy3Y
0.0,Dy-Zn,2,Dy3Zn11
0.0,Dy-Zr,2,Dy3Zr
5.326099999999999,B-Dy-O,3,Dy4(B2O5)3
0.0,B-Co-Dy,3,Dy4(CoB2)3
0.0,B-Dy-Fe,3,Dy4(FeB2)3
0.0,Al-Dy,2,Dy4Al
0.0,Al-Dy-Fe,3,Dy4Al3Fe5
5.4755,B-Dy-F-O,4,Dy4B4O11F2
0.0,C-Dy,2,Dy4C5
1.1853000000000002,Cd-Dy-S,3,Dy4CdS7
0.8468,Cd-Dy-Se,3,Dy4CdSe7
0.0,Co-Dy,2,Dy4Co
0.0,Co-Dy,2,Dy4Co3
0.0,B-Co-Dy,3,Dy4CoB13
0.0,Co-Dy-Sn,3,Dy4CoSn8
0.0,Cr-Dy-Ga,3,Dy4CrGa12
0.0,Cr-Dy-Ge,3,Dy4CrGe8
0.0,Cr-Dy-S,3,Dy4CrS7
0.0,Cr-Dy-Se,3,Dy4CrSe7
0.0,Cu-Dy-P,3,Dy4Cu5P7
0.0,Cu-Dy-Sn,3,Dy4Cu7Sn11
0.0,Dy-Fe,2,Dy4Fe
0.2145999999999999,Dy-Fe-S,3,Dy4FeS7
0.1685000000000003,Dy-Fe-Se,3,Dy4FeSe7
0.0,Dy-Fe-Sn,3,Dy4FeSn8
0.0,Dy-Fe-Ga,3,Dy4Ga12Fe
0.0,Dy-Ga-Ni,3,Dy4Ga12Ni
0.0,Dy-Ga-Pd,3,Dy4Ga12Pd
0.0,Dy-Ga-Pt,3,Dy4Ga12Pt
0.0,Co-Dy-Ga,3,Dy4Ga16Co3
0.0,Dy-Ge-Ir,3,Dy4Ge6Ir7
0.0,Dy-Ge-Rh,3,Dy4Ge6Rh7
0.0,Dy-Ge-In-Ni,4,Dy4In(NiGe2)2
0.0,Dy-Ir,2,Dy4Ir
1.6364999999999998,Cu-Dy-Mg-O,4,Dy4Mg(CuO4)2
0.0,Co-Dy-Mg,3,Dy4Mg3Co2
1.0637999999999996,Dy-Mg-S,3,Dy4MgS7
0.0,Dy-Mg-O-Ti,4,Dy4MgTi2O10
0.1210999999999993,Dy-Mg-O-Ti,4,Dy4MgTi2O10
0.2168999999999998,Dy-Mg-O-Ti,4,Dy4MgTi2O10
0.0,Dy-Mn,2,Dy4Mn
0.3597000000000001,Dy-Mn-S,3,Dy4MnS7
0.4542999999999999,Dy-Mn-Se,3,Dy4MnSe7
0.0,Dy-Ni,2,Dy4Ni
0.0,C-Dy-Ni,3,Dy4Ni13C4
0.0,Bi-Dy-Ni,3,Dy4Ni3Bi8
0.0,B-Dy-Ni,3,Dy4NiB13
0.0,Dy-Ni-Sn,3,Dy4NiSn8
0.0,Dy-Pt,2,Dy4Pt
0.0,Dy-Rh,2,Dy4Rh
0.0,Dy-Sb,2,Dy4Sb3
1.3965999999999994,Dy-S-Te,3,Dy4Te3S4
0.0,Dy-Te,2,Dy4Te7
0.0,B-Co-Dy,3,Dy5(CoB3)2
0.0,Dy-Ge-Sb,3,Dy5(GeSb)2
0.0,Dy-Mo-O,3,Dy5(MoO6)2
0.0,Dy-O-Re,3,Dy5(ReO6)2
0.0,B-Dy-Si,3,Dy5(SiB4)2
0.0,Dy-Sb-Si,3,Dy5(SiSb)2
1.731800000000001,Ag-Dy-S,3,Dy5AgS8
0.0,B-Dy-O,3,Dy5B3O13
0.0,Au-Bi-Dy,3,Dy5BiAu2
0.0,Bi-Dy-Pd,3,Dy5BiPd2
0.0,Bi-Dy-Pt,3,Dy5BiPt2
0.0,Co-Dy-P,3,Dy5Co19P12
0.0,Bi-Co-Dy,3,Dy5Co2Bi
0.0,Cu-Dy-Pb,3,Dy5CuPb3
0.0,Dy-Ga,2,Dy5Ga3
0.0,Dy-Ge,2,Dy5Ge3
0.0,B-Dy-Ge,3,Dy5Ge3B
0.0,C-Dy-Ge,3,Dy5Ge3C
0.0,Dy-In,2,Dy5In3
0.0,Dy-Ir,2,Dy5Ir2
0.0,Dy-Ir,2,Dy5Ir3
0.0,Dy-Mg,2,Dy5Mg
0.0,Bi-Dy-Ni,3,Dy5Ni2Bi
0.0,Dy-Ni-Sb,3,Dy5Ni2Sb
0.0,Dy-Ni-Pb,3,Dy5NiPb3
0.0,Dy-Pb,2,Dy5Pb3
0.0,Dy-Pt,2,Dy5Pt3
0.0,Dy-Rh,2,Dy5Rh3
0.0,Dy-Ru,2,Dy5Ru2
0.0,Dy-S,2,Dy5S7
0.0,Dy-Sb,2,Dy5Sb3
0.0,Au-Dy-Sb,3,Dy5SbAu2
0.0,Dy-Pd-Sb,3,Dy5SbPd2
0.0,Dy-Pt-Sb,3,Dy5SbPt2
0.0,Dy-Si,2,Dy5Si3
0.0,B-Dy-Si,3,Dy5Si3B
0.0,C-Dy-Si,3,Dy5Si3C
0.0,Dy-Sn,2,Dy5Sn11
0.0,Dy-Sn,2,Dy5Sn13
0.0,Dy-Sn,2,Dy5Sn3
0.0,Dy-Tl,2,Dy5Tl3
0.0,Ag-Dy-Ge-S,4,Dy6Ag(GeS7)2
2.467,Al-Dy-S-Si,4,Dy6Al2SiS14
0.0,Al-Cu-Dy,3,Dy6Al7Cu16
0.0,Co-Dy-Sn,3,Dy6Co2Sn
0.0,Co-Dy-Te,3,Dy6CoTe2
0.0,Cu-Dy,2,Dy6Cu23
0.0,Dy-Fe-O,3,Dy6Fe16O
0.0,Dy-Fe,2,Dy6Fe23
0.0,Bi-Dy-Fe,3,Dy6FeBi2
0.0,Dy-Fe-Sb,3,Dy6FeSb2
0.0,Dy-Fe-Te,3,Dy6FeTe2
0.0,Co-Dy-Ga,3,Dy6GaCo2
0.0,Dy-Ga-Ni,3,Dy6GaNi2
0.0,Co-Dy-In,3,Dy6InCo2
2.1727,Dy-Ge-Mg-S,4,Dy6Mg(GeS7)2
0.9867,Dy-Mn-S-Si,4,Dy6Mn(SiS7)2
0.0,Dy-Mn,2,Dy6Mn23
0.0,Bi-Dy-Mn,3,Dy6MnBi2
0.0,Dy-Ni-Sn,3,Dy6Ni2Sn
0.0,Dy-Zn,2,Dy6Zn23
0.0,Dy-Ir-Te,3,Dy7(TeIr)2
0.0,Dy-Pd-Te,3,Dy7(TePd)2
0.0,Dy-Pt-Te,3,Dy7(TePt)2
0.0,Co-Dy-Ge-In,4,Dy7In(CoGe3)4
0.0,C-Dy-Rh,3,Dy8Rh5C12
0.0,Ag-Dy,2,DyAg
3.1201,Ag-Dy-O-W,4,DyAg(WO4)2
0.0,Ag-Dy,2,DyAg2
0.0,Ag-Dy,2,DyAg3
0.0,Ag-Dy-Ge,3,DyAgGe
2.9023,Ag-C-Dy-H-O-S,6,DyAgH2C2SO9
0.0,Ag-Dy-Hg,3,DyAgHg2
0.0,Ag-Dy-Pb,3,DyAgPb
0.0,Ag-Dy-Sb,3,DyAgSb2
0.4770999999999996,Ag-Dy-Se,3,DyAgSe2
1.306,Ag-Dy-Se,3,DyAgSe2
0.0,Ag-Dy-Sn,3,DyAgSn
0.0,Ag-Dy-Sn,3,DyAgSn2
1.0711999999999997,Ag-Dy-Te,3,DyAgTe2
0.8957999999999995,Ag-Dy-Te,3,DyAgTe2
0.0,Al-Dy,2,DyAl
0.0,Al-Dy,2,DyAl2
0.0,Al-Dy-Ni,3,DyAl2Ni
0.0,Al-Dy,2,DyAl3
5.543100000000001,Al-B-Dy-O,4,DyAl3(BO3)4
0.0,Al-Dy-Ni,3,DyAl3Ni2
0.0,Al-Dy-Ni,3,DyAl4Ni
0.0,Al-Au-Dy,3,DyAl7Au3
0.0,Al-Dy-Fe,3,DyAl7Fe5
0.0,Ag-Al-Dy,3,DyAlAg2
0.0,Al-Au-Dy,3,DyAlAu
0.0,Al-B-Dy,3,DyAlB14
0.0,Al-Co-Dy,3,DyAlCo
0.0,Al-Co-Dy,3,DyAlCo4
0.0,Al-Cu-Dy,3,DyAlCu
0.0,Al-Cu-Dy,3,DyAlCu4
0.0,Al-Dy-Fe,3,DyAlFe
0.0,Al-Dy-Fe,3,DyAlFe2
0.0,Al-Dy-Ga,3,DyAlGa
0.0,Al-Dy-Ge,3,DyAlGe
0.0,Al-Dy-Ni,3,DyAlNi
0.0,Al-Dy-Ni,3,DyAlNi4
5.166,Al-Dy-O,3,DyAlO3
5.723000000000001,Al-Dy-O,3,DyAlO3
2.9483000000000006,Al-Dy-O,3,DyAlO3
0.0,Al-Dy-Pd,3,DyAlPd
0.0,Al-Dy-Pt,3,DyAlPt
0.0,Al-Dy-Si,3,DyAlSi
0.0,Al-Dy-Zn,3,DyAlZn
0.0,As-Dy,2,DyAs
3.6275,As-Dy-O,3,DyAsO4
0.0,As-Dy-Pd,3,DyAsPd
0.0,As-Dy-Pt,3,DyAsPt
0.0288000000000003,As-Dy-S,3,DyAsS
0.0781999999999998,As-Dy-Se,3,DyAsSe
0.0,Au-Dy,2,DyAu
0.0,Au-Dy,2,DyAu2
0.0,Au-Dy,2,DyAu3
0.0,B-Dy,2,DyB12
0.0,B-Dy,2,DyB2
0.0,B-C-Dy,3,DyB2C
0.0,B-Dy-Ir,3,DyB2Ir3
0.0,B-Dy-Os,3,DyB2Os
0.0,B-C-Dy-Rh,4,DyB2Rh2C
0.0,B-Dy-Rh,3,DyB2Rh3
0.0,B-Dy-Ru,3,DyB2Ru
0.0,B-Dy-Ru,3,DyB2Ru3
0.0,B-Dy-Mo,3,DyB3Mo
0.0,B-Dy,2,DyB4
0.0,B-Dy-Ir-Rh,4,DyB4(IrRh)2
0.2812999999999999,B-Dy-Mo,3,DyB4Mo
0.0,B-Dy-Os,3,DyB4Os
0.0,B-Dy-Rh,3,DyB4Rh
0.0,B-Dy-Rh,3,DyB4Rh7
0.0,B-Dy-Ru,3,DyB4Ru
0.5661000000000005,B-Dy-W,3,DyB4W
0.0,B-Dy,2,DyB6
0.0,B-Dy-Mo,3,DyB7Mo3
0.0,B-C-Dy,3,DyBC
0.0,B-Dy-H,3,DyBH4
5.3594,B-Dy-O,3,DyBO3
4.514,B-Dy-O,3,DyBO3
0.0,B-Dy-Pd,3,DyBPd3
0.0,B-Dy-Rh,3,DyBRh3
0.0,Be-Dy,2,DyBe13
0.0,Be-Cu-Dy,3,DyBeCu4
0.3495,Be-Dy-F-N,4,DyBeNF6
0.0,Bi-Dy,2,DyBi
3.1001000000000003,Cs-F-V,3,Cs3VF6
2.4005,Cl-Cs-H-O-V,5,Cs3VH8(Cl3O2)2
1.4894,Cs-Se-V,3,Cs3VSe4
4.0619,Br-Cs-Y,3,Cs3YBr6
4.751,Cl-Cs-Y,3,Cs3YCl6
5.9892,Cs-F-Y,3,Cs3YF6
5.338699999999999,Cs-F-Y,3,Cs3YF6
2.2826000000000004,Cs-O-Y,3,Cs3YO3
2.7476,Cs-H-Zn,3,Cs3ZnH5
1.1297,C-Cs-O,3,Cs4CO4
1.6621,C-Cs-O,3,Cs4CO4
1.7003,C-Cs-O,3,Cs4CO4
0.7968000000000002,C-Cs-O,3,Cs4CO4
1.2921,C-Cs-O,3,Cs4CO4
4.4602,Cd-Cs-F-Ni,4,Cs4CdNi3F12
0.123,Cs-Cu-F,3,Cs4Cu3F10
0.5831,Cs-Cu-O-Si,4,Cs4CuSi2O7
0.5232999999999999,Cs-Fe-O,3,Cs4Fe2O5
0.3652000000000002,Cs-Ir-O,3,Cs4IrO4
0.0,Cs-F-Fe-K-Li,5,Cs4KLiFe2F12
6.0451,Cs-F-Ga-K-Li,5,Cs4KLiGa2F12
0.0,Cs-Li-O-Pb,4,Cs4Li(Pb2O3)2
0.161,Cs-Mg-S-Ti,4,Cs4Mg(TiS3)2
0.2133000000000002,Cs-Mg-S-Ti,4,Cs4Mg(TiS3)2
0.0,Cs-Mg-S-Ti,4,Cs4Mg(TiS3)2
1.2677,Cs-Mg-O-W,4,Cs4Mg(WO4)2
0.999,Cs-Mg-Na-O-V,5,Cs4Na2MgV2O8
1.2964000000000002,Cs-Mg-Na-O-V,5,Cs4Na2MgV2O8
6.315,Cs-F-Ga-Na-Sc,5,Cs4Na2ScGaF12
0.0,Cs-O,2,Cs4O3
2.5754,Cs-O-Sb,3,Cs4Sb2O5
0.0,Au-Cs-Sn,3,Cs4Sn2Au7
0.0235000000000003,Cs-O-Si-U,4,Cs4U3Si4O17
0.2256999999999998,Cs-Fe-O,3,Cs6Fe2O5
3.087,Cs-Ni-O-Si,4,Cs6Si2NiO8
0.0,Ac-Cs,2,CsAc
0.0,Ac-Cs,2,CsAc3
0.0,Ac-Cs-O,3,CsAcO3
0.8775000000000004,Ac-Cs-Te,3,CsAcTe2
2.6458000000000004,Ag-Cs-N-O,4,CsAg(NO3)2
0.4114,Ag-Cs-S,3,CsAg3S2
0.1917999999999997,Ag-Cs-Se,3,CsAg3Se2
0.4034,Ag-Cs-Te,3,CsAg3Te2
2.0566,Ag-Br-Cs,3,CsAgBr2
1.7972,Ag-Br-Cs,3,CsAgBr2
0.0,Ag-Br-Cs,3,CsAgBr3
2.6118,Ag-C-Cs,3,CsAgC2
2.3353,Ag-Cl-Cs,3,CsAgCl2
2.201,Ag-Cl-Cs,3,CsAgCl2
0.0,Ag-Cl-Cs,3,CsAgCl3
0.0,Ag-Cs-F,3,CsAgF3
1.4719000000000002,Ag-Cs-O,3,CsAgO
1.1055,Ag-Cs-O,3,CsAgO2
0.0,Al-Cs,2,CsAl
2.9105,Al-Cs-H-N,4,CsAl(H2N)4
3.8773,Al-Cs-Mo-O,4,CsAl(MoO4)2
0.0,Al-Cs-Cu-F,4,CsAlCuF6
6.977,Al-Cs-F,3,CsAlF4
2.0275,Al-Cs-Fe-O-Si,5,CsAlFe3(SiO4)3
0.0,Al-Cs-H,3,CsAlH2
6.3211,Al-Cs-F-H-O,5,CsAlH4(OF2)2
5.4309,Al-Cs-F-Ni,4,CsAlNiF6
4.273499999999999,Al-Cs-O,3,CsAlO2
4.466799999999999,Al-Cs-O-Si,4,CsAlSiO4
4.458200000000001,Al-Cs-O-Si,4,CsAlSiO4
3.8922,As-Cs-H-O,4,CsAs(HO2)2
2.2357,As-Cs-O,3,CsAs3O8
5.2662,As-Cs-F,3,CsAs4F13
4.6128,As-Cs-F,3,CsAsF4
5.2216,As-Cs-F,3,CsAsF6
2.2104,As-C-Cs-H-Se,5,CsAsH6(CSe)2
2.2116,As-Cs-O,3,CsAsO3
0.0,As-Cs-O,3,CsAsO3
2.6306,As-Cs-O,3,CsAsO3
0.3499000000000001,As-Cs-O,3,CsAsO4
3.747100000000001,As-Cs-F-O,4,CsAsOF4
1.0233,Au-Cs,2,CsAu
2.0493,Au-Cs-I-O,4,CsAu(IO3)4
1.7961999999999998,Au-Cs-F,3,CsAu2F7
2.3501,Au-Cs-S,3,CsAu3S2
2.1741,Au-Cs-Se,3,CsAu3Se2
0.0,Au-Br-Cs,3,CsAuBr3
0.653,Au-Br-Cs,3,CsAuBr3
2.0644,Au-C-Cs,3,CsAuC2
0.0,Au-Cl-Cs,3,CsAuCl3
0.8112,Au-Cl-Cs,3,CsAuCl3
1.8897,Au-Cl-Cs,3,CsAuCl4
0.0,Au-Cs-F,3,CsAuF3
2.4472,Au-Cs-F,3,CsAuF4
0.7337,Au-Cs-I,3,CsAuI3
1.3835,Au-Cs-O,3,CsAuO
1.5219000000000005,Au-Cs-O,3,CsAuO2
0.0,Au-Cs-O,3,CsAuO3
1.8832,Au-Cs-S,3,CsAuS
1.7093,Au-Cs-Se,3,CsAuSe
1.1919000000000002,Au-Cs-Se,3,CsAuSe3
0.0,B-Cs,2,CsB
6.4977,B-C-Cs-F,4,CsB(CF4)2
6.3553,B-C-Cs-N,4,CsB(CN)4
5.973,B-Cs-H,3,CsB3H8
5.957599999999999,B-Cs-H,3,CsB3H8
5.304,B-Cs-O,3,CsB3O5
6.2981,B-Cs-F-Pb,4,CsB3PbF12
7.6306,B-Cs-F,3,CsBF4
5.7194,B-Cs-H,3,CsBH4
3.8457,B-Cs-O,3,CsBO2
0.0,B-Cs-O,3,CsBO6
2.7223,B-Cs-F-I-Pb,5,CsBPb(IF2)2
2.8051,B-Cs-S,3,CsBS2
1.495,Ba-Co-Cs-F,4,CsBa2Co2F9
3.2848,Ba-Cr-Cs-F,4,CsBa2Cr2F11
0.0,Ba-Cs-Mg-Nb-O,5,CsBa2MgNb3O10
1.4077000000000002,Ba-Cs-Nb-O,4,CsBa2Nb3O10
4.5784,Ba-Cs-F-Ni,4,CsBa2Ni2F9
4.8824,Ba-Cs-F-Zn,4,CsBa2Zn2F9
0.0,Ba-Cs,2,CsBa3
0.0,Ba-Cs-Mg,3,CsBaMg14
0.0,Ba-Cs-O,3,CsBaO3
3.9698,Ba-Cs-H-O-Si,5,CsBaSiHO4
5.8834,B-Be-Cs-F-O,5,CsBe2BO3F2
7.374,Be-Cs-F,3,CsBe2F5
0.064,Al-B-Be-Cs-O,5,CsBe4Al4(B3O7)4
3.9888,As-Be-Cs-O,4,CsBeAsO4
5.367100000000001,Be-Cs-F,3,CsBeF3
6.1183,Be-Cs-F,3,CsBeF3
3.3661000000000003,Be-Cs-H,3,CsBeH3
5.3448,Be-Cs-O-P,4,CsBePO4
2.8514,Bi-Cs-Mo-O,4,CsBi(MoO4)2
0.0,Bi-Cs,2,CsBi2
2.8234,Bi-Cs-F,3,CsBiF6
2.3187,Bi-Cs-O,3,CsBiO2
0.0,Bi-Cs-O,3,CsBiO3
0.9529999999999998,Bi-Cs-Se,3,CsBiSe2
4.2392,Br-Cs,2,CsBr
4.2575,Br-Cs,2,CsBr
1.7763,Br-Cs-F,3,CsBr2F
2.5062,Br-Cs-F,3,CsBrF
3.2844,Br-Cs-F,3,CsBrF4
3.9858,Br-Cs-F,3,CsBrF6
4.1681,Br-Cs-O,3,CsBrO3
3.0454,Br-Cs-O,3,CsBrO4
0.8099999999999999,C-Cs-F-O,4,CsC(OF)2
4.0656,C-Cs-N,3,CsC2N3
0.0,C-Cs,2,CsC8
4.9418,C-Cs-N,3,CsCN
4.5353,C-Cs-N-O,4,CsCNO
6.1248000000000005,C-Cs-F-O,4,CsCOF3
5.6075,C-Cs-F-O-S,5,CsCS(OF)3
4.3764,C-Cs-N-S,4,CsCSN
2.6181,Ca-Cs-N-O,4,CsCa(NO2)3
2.1798,Ca-Cs-O-Ta,4,CsCa2Ta3O10
0.0,Ca-Cs,2,CsCa3
4.3923,Br-Ca-Cs,3,CsCaBr3
4.5255,C-Ca-Cs-F-O,5,CsCaCO3F
5.3473,Ca-Cl-Cs,3,CsCaCl3
5.3331,Ca-Cl-Cs,3,CsCaCl3
5.3402,Ca-Cl-Cs,3,CsCaCl3
6.9005,Ca-Cs-F,3,CsCaF3
4.0792,Ca-Cs-H-N-O,5,CsCaH2N9O
3.1408,Ca-Cs-H,3,CsCaH3
3.7149,Ca-Cs-I,3,CsCaI3
0.0,Ca-Cs-Mg,3,CsCaMg14
0.0,Ca-Cs-Mg,3,CsCaMg6
0.0,Ca-Cs-O,3,CsCaO3
0.0,Cd-Cs-N-O,4,CsCd(NO2)3
2.4366,Cd-Cs-N-O,4,CsCd(NO2)3
0.2198000000000002,As-Cd-Cs,3,CsCd4As3
2.0699,Au-Cd-Cs-S,4,CsCdAuS2
1.6462,B-Cd-Cs-O,4,CsCdBO3
2.901,Br-Cd-Cs,3,CsCdBr3
0.6968000000000001,Br-Cd-Cs,3,CsCdBr3
1.7462,Cd-Cl-Cs,3,CsCdCl3
3.2859,Cd-Cs-F,3,CsCdF3
0.4225000000000001,Cd-Cs-N,3,CsCdN
0.0,Cd-Cs-O,3,CsCdO3
0.0,Ce-Cs,2,CsCe
0.0183999999999997,Cd-Ce-Cs-Se,4,CsCeCdSe3
0.6972,Ce-Cs-Cu-S,4,CsCeCuS3
0.0,Ce-Cs-Hg-Se,4,CsCeHgSe3
0.0,Ce-Cs-Mg,3,CsCeMg14
0.0,Ce-Cs-Mg-O,4,CsCeMg14O16
0.0,Ce-Cs-Mg-O,4,CsCeMg6O8
0.0,Ce-Cs-S,3,CsCeS2
4.9884,Cl-Cs,2,CsCl
4.8482,Cl-Cs,2,CsCl
2.3389,Cl-Cs-O,3,CsClO2
5.3706000000000005,Cl-Cs-O,3,CsClO3
5.465800000000001,Cl-Cs-O,3,CsClO3
5.377,Cl-Cs-O,3,CsClO3
5.444000000000001,Cl-Cs-O,3,CsClO4
5.3228,Cl-Cs-O,3,CsClO4
6.0296,Cl-Cs-O,3,CsClO4
3.8385,C-Co-Cs-O,4,CsCo(CO)4
0.0,Cl-Co-Cs,3,CsCoCl3
0.0,Co-Cs-Cu-F,4,CsCoCuF6
0.0,Co-Cs-Cu-S,4,CsCoCuS2
0.0,Co-Cs-F,3,CsCoF3
1.6797,Cl-Co-Cs-H-N-O,6,CsCoH18N6(ClO2)4
0.0,Co-Cs-N,3,CsCoN
1.4981,Co-Cs-F-Ni,4,CsCoNiF6
0.0,Co-Cs-O,3,CsCoO2
0.6383999999999999,Co-Cs-O,3,CsCoO2
0.4868000000000001,Co-Cs-O,3,CsCoO2
0.8512999999999997,Co-Cs-O,3,CsCoO2
3.0688000000000004,Co-Cs-O-P,4,CsCoPO4
3.146,Co-Cs-O-P,4,CsCoPO4
1.7871,Co-Cs-F-O-W,5,CsCoW(OF)3
3.1264,Cr-Cs-Mo-O,4,CsCr(MoO4)2
2.7386000000000004,Cr-Cs-O-S,4,CsCr(SO4)2
0.4013999999999997,Cr-Cs-S,3,CsCr5S8
0.3078000000000003,Cr-Cs-S,3,CsCr5S8
0.0104999999999999,Cr-Cs-Se,3,CsCr5Se8
0.0,Cr-Cs-Te,3,CsCr5Te8
0.0,Br-Cr-Cs,3,CsCrBr3
0.0,C-Cr-Cs,3,CsCrC6
0.1681999999999996,Cl-Cr-Cs,3,CsCrCl3
0.0,Cl-Cr-Cs,3,CsCrCl3
2.2148000000000003,Co-Cr-Cs-F,4,CsCrCoF6
0.0,Cr-Cs-Cu-F,4,CsCrCuF6
2.8606,Cr-Cs-F,3,CsCrF4
0.0,Cr-Cs-F-Fe,4,CsCrFeF6
3.1739,Br-Cl-Cr-Cs-H-N-O,7,CsCrH18Br2N6(ClO4)2
3.6,Cl-Cr-Cs-H-N-O,6,CsCrH18N6(ClO2)4
1.9342,Cr-Cs-H-N-O,5,CsCrH8(NO4)2
0.0,Cr-Cs-I,3,CsCrI2
0.0,Cr-Cs-I,3,CsCrI3
3.2021,Cr-Cs-F-Ni,4,CsCrNiF6
2.8472,Cr-Cs-F-O,4,CsCrO3F
1.0727000000000002,Cr-Cs-P-S,4,CsCrP2S7
0.6050999999999997,Bi-Cs-Cu-S,4,CsCu(BiS2)2
1.4959,Br-Cs-Cu,3,CsCu2Br3
1.8299,Cl-Cs-Cu,3,CsCu2Cl3
0.0,Cs-Cu-F,3,CsCu2F5
0.0,Cs-Cu-F,3,CsCu2F6
1.8996000000000004,Cs-Cu-I,3,CsCu2I3
2.037300000000001,Cl-Cs-Cu-I,4,CsCu2ICl2
0.7029999999999998,Cs-Cu-Ge-Se,4,CsCu3GeSe4
1.4572,Cs-Cu-O,3,CsCu3O2
1.6846,Cs-Cu-S,3,CsCu3S2
0.0,Cs-Cu-S,3,CsCu4S3
0.0,Cs-Cu-Se,3,CsCu4Se3
0.3266,Cs-Cu-S,3,CsCu5S3
2.2889,Ag-C-Cs-Cu-N,5,CsCuAg2(CN)4
1.7321,C-Cs-Cu,3,CsCuC2
0.5123,Cl-Cs-Cu,3,CsCuCl3
0.0,Cl-Cs-Cu,3,CsCuCl3
1.5436,Cs-Cu-F,3,CsCuF4
0.2198,Cs-Cu-N,3,CsCuN
0.0,Cs-Cu-N,3,CsCuN
0.0,Cs-Cu-F-Ni,4,CsCuNiF6
0.5807000000000002,Cs-Cu-O,3,CsCuO
0.9672,Cs-Cu-O,3,CsCuO2
0.0,Cs-Cu-F-Rh,4,CsCuRhF6
3.602,Cs-Dy-Mo-O,4,CsDy(MoO4)2
3.4395,Cs-Dy-O-W,4,CsDy(WO4)2
1.4902000000000006,Cs-Cu-Dy-S,4,CsDy2Cu3S5
0.0,Br-Cs-Dy,3,CsDyBr3
2.0718,Cd-Cs-Dy-Se,4,CsDyCdSe3
1.5476,Cd-Cs-Dy-Te,4,CsDyCdTe3
2.835,Cs-Dy-O,3,CsDyO2
2.1424000000000003,Cs-Dy-S,3,CsDyS2
2.2244,Cs-Dy-S,3,CsDyS2
2.1541,Cs-Dy-Se-Zn,4,CsDyZnSe3
1.3714000000000004,Cs-Dy-Te-Zn,4,CsDyZnTe3
3.5742000000000003,Cs-Er-Mo-O,4,CsEr(MoO4)2
3.6324,Cs-Er-Mo-O,4,CsEr(MoO4)2
4.0124,Cs-Er-Mo-O,4,CsEr(MoO4)2
3.0014000000000003,Cs-Er-Mo-O,4,CsEr(MoO4)2
4.7027,Cs-Er-O-W,4,CsEr(WO4)2
3.3334,Cs-Er-O-W,4,CsEr(WO4)2
1.5316999999999998,Cs-Cu-Er-S,4,CsEr2Cu3S5
0.0,C-Cs-Er-I,4,CsEr6CI12
1.5492,Cd-Cs-Er-Te,4,CsErCdTe3
0.5140000000000002,Cs-Er-Mn-Se,4,CsErMnSe3
2.8015000000000003,Cs-Er-O,3,CsErO2
2.1441,Cs-Er-S,3,CsErS2
2.1566,Cs-Er-Se-Zn,4,CsErZnSe3
1.3864999999999998,Cs-Er-Te-Zn,4,CsErZnTe3
0.0,Cs-Eu,2,CsEu
0.0,Cs-Eu-Mo-O,4,CsEu(MoO4)2
0.0,Cs-Eu-O-W,4,CsEu(WO4)2
0.0,Cs-Eu,2,CsEu3
0.6374,Cl-Cs-Eu,3,CsEuCl3
0.0,Cs-Eu-F,3,CsEuF3
0.0,Cs-Eu-O,3,CsEuO3
1.0284000000000004,Cs-Eu-O-P,4,CsEuPO4
0.0,Cs-Eu-S,3,CsEuS2
5.2626,Cs-F,2,CsF
5.938,Cs-F,2,CsF
2.5380000000000003,Cs-Fe-Mo-O,4,CsFe(MoO4)2
2.3737,Cs-Fe-Mo-O,4,CsFe(MoO4)2
0.0,Cs-F-Fe-O,4,CsFe(OF2)2
2.2281,Cs-Fe-O-Se,4,CsFe(SeO4)2
0.0,Cs-F-Fe,3,CsFe2F6
0.0,Cs-Fe-S,3,CsFe2S3
0.0,Cs-Fe-Se,3,CsFe2Se3
0.0,Cs-Fe-Te,3,CsFe2Te3
0.0,As-Cs-Fe,3,CsFe4As3
0.0,Br-Cs-Fe,3,CsFeBr3
0.0,Cl-Cs-Fe,3,CsFeCl3
1.828,Co-Cs-F-Fe,4,CsFeCoF6
0.0,Cs-Cu-F-Fe,4,CsFeCuF6
0.0,Cs-Cu-Fe-S,4,CsFeCuS2
0.0,Cs-F-Fe,3,CsFeF3
0.0,Cs-F-Fe,3,CsFeF4
0.0,Cs-Fe-N,3,CsFeN
2.6205,Cs-F-Fe-Ni,4,CsFeNiF6
1.976,Cs-Fe-O,3,CsFeO2
4.6479,Cs-Fe-H-O-P,5,CsFeP(H6O5)2
0.0,Cs-Fe-S,3,CsFeS2
4.001,Cs-Ga-O-S,4,CsGa(SO4)2
0.0,Cs-Ga,2,CsGa3
0.0,Cs-Ga,2,CsGa7
0.0,Cs-Cu-F-Ga,4,CsGaCuF6
4.6071,Cs-Ga-H,3,CsGaH4
4.4905,Cs-F-Ga-Ni,4,CsGaNiF6
2.7962,Cs-Ga-O,3,CsGaO2
4.8914,Cs-Ga-H-O-P,5,CsGaP3HO10
4.6119,Cs-Ga-H-O-P,5,CsGaP3HO10
3.0626,Cs-Ga-S,3,CsGaS2
0.0,Cs-Gd,2,CsGd
3.1586000000000003,Cs-Gd-Mo-O,4,CsGd(MoO4)2
2.9428,Cs-Gd-Mo-O,4,CsGd(MoO4)2
3.0820000000000003,Cs-Gd-Mo-O,4,CsGd(MoO4)2
3.0973000000000006,Cs-Gd-O-W,4,CsGd(WO4)2
0.8502999999999998,Cd-Cs-Gd-Te,4,CsGdCdTe3
0.0,Cs-Gd-Hg-Se,4,CsGdHgSe3
2.4891,Cs-Gd-O,3,CsGdO2
0.0,Cs-Gd-O,3,CsGdO3
1.8329,Cs-Gd-S,3,CsGdS2
0.0838999999999998,Cs-Gd-Te,3,CsGdTe4
0.8742999999999999,Cs-Gd-Te-Zn,4,CsGdZnTe3
0.0,Cs-Ge,2,CsGe
0.439,Cs-Ge-N,3,CsGe2N3
0.7856000000000001,Br-Cs-Ge,3,CsGeBr3
0.7606999999999999,Br-Cs-Ge,3,CsGeBr3
1.4434000000000002,Br-Cs-Ge,3,CsGeBr3
2.1535,Cl-Cs-Ge,3,CsGeCl3
0.9905000000000002,Cs-Ge-I,3,CsGeI3
1.1901,Cs-Ge-I,3,CsGeI3
0.0,Cs-Ge-O,3,CsGeO3
2.3475,Cs-H,2,CsH
2.5693,Cs-H,2,CsH
0.0,Cl-Cs-H-N-O-Ru,6,CsH18RuN6(ClO2)4
3.422,C-Cs-H-O,4,CsH2CO3
0.0,Cs-H,2,CsH3
4.1517,Cs-H-O-Se,4,CsH3(SeO3)2
4.2295,C-Cs-H-N-O,5,CsH3CN2O
4.7105,Cs-H-O,3,CsH3O2
4.0949,Cs-H-O,3,CsH3O2
3.6774,C-Cs-H-N,4,CsH4CN3
5.7447,Cs-F-H-N,4,CsH4NF2
2.161,Cs-H-N,3,CsH5N2
2.0856,Cs-H-N,3,CsH5N2
4.5579,Cs-H-O,3,CsH7O4
4.4195,C-Cs-H-O,4,CsHCO2
4.5588,C-Cs-H-O,4,CsHCO3
4.9478,C-Cs-H-O,4,CsHCO3
6.2979,Cs-F-H,3,CsHF2
6.5123,Cs-F-H,3,CsHF2
4.6043,Cs-F-H-I,4,CsHIF7
3.4329,Cs-H-O,3,CsHO
3.1721000000000004,Cs-H-O,3,CsHO
3.4011,Cs-H-S,3,CsHS
5.6738,Cs-F-H-O-S,5,CsHS2(O3F)2
5.3167,Cs-H-O-S,4,CsHS2O7
3.8412,Cs-H-O-S,4,CsHSO2
5.842700000000001,Cs-H-O-S,4,CsHSO3
5.3412,Cs-H-O-S,4,CsHSO4
5.2874,Cs-H-O-S,4,CsHSO4
5.564399999999999,Cs-H-O-S,4,CsHSO4
1.3728,Cs-Cu-Hf-Se,4,CsHfCu3Se4
0.0,Cs-Hf-Mg,3,CsHfMg14
0.0,Cs-Hf-Mg-O,4,CsHfMg14O15
0.1408000000000004,Cs-Hf-Mg-O,4,CsHfMg14O15
0.0,Cs-Hf-Mg,3,CsHfMg6
0.0,Cs-Hf-Mg-O,4,CsHfMg6O7
0.0,Cs-Hg,2,CsHg
0.0,Cs-Hg-N-O,4,CsHg(NO2)3
0.0,Cs-Hg,2,CsHg2
0.0,Cs-Hg,2,CsHg3
0.0,Br-Cl-Cs-Hg,4,CsHgBr2Cl
0.0,Br-Cs-Hg,3,CsHgBr3
0.0,Br-Cl-Cs-Hg,4,CsHgBrCl2
0.0,Cl-Cs-Hg,3,CsHgCl3
2.0663,Cl-Cs-Hg,3,CsHgCl3
0.7228,Cs-F-Hg,3,CsHgF3
1.0746000000000002,Cs-Hg-Sb-Se,4,CsHgSbSe3
0.0,Cs-Ho,2,CsHo
3.0516000000000005,Cs-Ho-Mo-O,4,CsHo(MoO4)2
3.5409,Cs-Ho-Mo-O,4,CsHo(MoO4)2
3.6087,Cs-Ho-Mo-O,4,CsHo(MoO4)2
3.4351000000000003,Cs-Ho-O-W,4,CsHo(WO4)2
0.0,Cs-Ho,2,CsHo3
1.5467999999999995,Cd-Cs-Ho-Te,4,CsHoCdTe3
0.0,Co-Cs-Ho-Se,4,CsHoCoSe3
0.5124,Cs-Ho-Mn-Se,4,CsHoMnSe3
2.8143,Cs-Ho-O,3,CsHoO2
2.2237,Cs-Ho-S,3,CsHoS2
2.1354,Cs-Ho-S,3,CsHoS2
2.1295,Cs-Ho-Se-Zn,4,CsHoZnSe3
1.3765,Cs-Ho-Te-Zn,4,CsHoZnTe3
3.6776,Cs-I,2,CsI
3.8727,Cs-I,2,CsI
3.1234,Cs-I,2,CsI
3.8797,Cs-I,2,CsI
3.8556,Cs-I,2,CsI