eg,chemsys,nelements,formula
4.0575,Ho-O,2,Ho2O3
0.0,Ho-O,2,Ho2O3
0.0,Au-Ho-Os,3,Ho2OsAu
0.0,C-Ho-Os,3,Ho2OsC2
0.0,Ho-Os-Pd,3,Ho2OsPd
0.0,Ho-Os-Pt,3,Ho2OsPt
0.0,Ho-Os-Rh,3,Ho2OsRh
0.0,Ho-Os-Ru,3,Ho2OsRu
5.3357,Ho-O-P,3,Ho2P4O13
0.0,Ho-P-Rh,3,Ho2P7Rh12
0.0,Ho-O-Pa,3,Ho2Pa2O5
1.1706000000000003,Ho-O-Pb,3,Ho2Pb2O7
0.0,Ho-Pb-Pd,3,Ho2Pd2Pb
0.0,Ho-Pd-Rh,3,Ho2PdRh
0.0,Ho-Pd-Ru,3,Ho2PdRu
0.0,Ho-Pt,2,Ho2Pt
1.5068999999999997,Ho-O-Pt,3,Ho2Pt2O7
0.0,C-Ho-Re-Si,4,Ho2Re2Si2C
0.0,B-Ho-Re,3,Ho2ReB6
0.0,C-Ho-Re,3,Ho2ReC2
0.0,Ho-O-Ru,3,Ho2Ru2O7
0.0,Au-Ho-Ru,3,Ho2RuAu
0.0,Ho-Pt-Ru,3,Ho2RuPt
0.0,Ho-Rh-Ru,3,Ho2RuRh
0.0,F-Ho-S,3,Ho2S2F
0.6113999999999997,Ho-S,2,Ho2S3
2.4745,Ho-S,2,Ho2S3
3.0283,Ho-O-S,3,Ho2SO2
2.8696,Ho-O-S,3,Ho2SO2
1.3472,Ho-O-Sb,3,Ho2Sb2O7
0.0,Ho-O-Sb,3,Ho2SbO2
2.0336000000000003,Ho-Nb-O-Sc,4,Ho2ScNbO7
2.1517000000000004,Ho-O-Se,3,Ho2SeO2
0.0,Ho-Si,2,Ho2Si3
0.0,Ho-Pd-Si,3,Ho2Si3Pd
0.0,Ho-Rh-Si,3,Ho2Si3Rh
0.0,Ho-Mo-Si,3,Ho2Si4Mo3
0.0,Ho-Ni-Si,3,Ho2Si5Ni3
0.0,Ho-Rh-Si,3,Ho2Si5Rh3
0.0,Ge-Ho-Si,3,Ho2SiGe
4.702,Ho-O-Si,3,Ho2SiO5
0.0,Ho-Pd-Si,3,Ho2SiPd2
2.6279000000000003,Ho-O-S-Si,4,Ho2SiSO4
2.5613,Ho-O-Se-Si,4,Ho2SiSeO4
2.7013,Ho-O-Sn,3,Ho2Sn2O7
0.0,Ho-Rh-Sn,3,Ho2Sn5Rh3
0.0,Au-Ho-Sn,3,Ho2SnAu2
3.2395,Ho-O-Te,3,Ho2Te4O11
0.0,Ho-Te,2,Ho2Te5
0.6118999999999994,Ho-O-Te,3,Ho2TeO2
0.7656000000000001,Ho-O-Te,3,Ho2TeO2
0.5838000000000001,Ho-O-Te,3,Ho2TeO2
3.1026,Ho-O-Te,3,Ho2TeO6
2.5188,Ho-O-Te,3,Ho2TeO6
3.0134,Ho-O-Te,3,Ho2TeO6
1.7469,Ho-S-Te,3,Ho2TeS2
2.720800000000001,Ho-O-Ti,3,Ho2Ti2O7
0.0,Cu-Ho-O-Ti,4,Ho2TiCuO6
0.0,Ge-Ho-Ti,3,Ho2TiGe2
3.0358,Ho-O-Ti,3,Ho2TiO5
2.8337,Ho-O-Ti,3,Ho2TiO5
3.2848999999999995,Ho-O-Ti,3,Ho2TiO5
3.1512,Ho-O-Ti,3,Ho2TiO5
0.0,Ag-Ho-Tl,3,Ho2TlAg
0.0,Cd-Ho-Tl,3,Ho2TlCd
0.0,Hg-Ho-Tl,3,Ho2TlHg
0.0,Ho-In-Tl,3,Ho2TlIn
0.0,Ho-Tl-Zn,3,Ho2TlZn
1.2503000000000002,Ho-O-V,3,Ho2V2O7
0.1960999999999999,Ho-O-V,3,Ho2V2O7
0.0,Fe-Ho-O-V,4,Ho2VFeO6
3.0097,Ho-O-P-V,4,Ho2VPO8
3.7755,Ho-O-W,3,Ho2WO6
2.6517,Ho-O-W,3,Ho2WO6
3.2397,Ho-O-W,3,Ho2WO6
0.0,Ho-Zn,2,Ho2Zn17
0.0,Ag-Ho-Zn,3,Ho2ZnAg
0.0,Au-Ho-Zn,3,Ho2ZnAu
0.0,Cu-Ho-Zn,3,Ho2ZnCu
0.0,Cu-Ho-Si-Zn,4,Ho2ZnCuSi2
0.0,Ga-Ho-Zn,3,Ho2ZnGa
0.0,Hg-Ho-Zn,3,Ho2ZnHg
0.0,Ho-In-Zn,3,Ho2ZnIn
0.0,Ho-Ir-Zn,3,Ho2ZnIr
0.0,Ho-Os-Zn,3,Ho2ZnOs
0.0,Ho-Pd-Zn,3,Ho2ZnPd
0.0,Ho-Pt-Zn,3,Ho2ZnPt
0.0,Ho-Rh-Zn,3,Ho2ZnRh
0.0,Ho-Ru-Zn,3,Ho2ZnRu
0.0,Ho-Tc-Zn,3,Ho2ZnTc
3.9851,Ho-O-S-Te-Zn,5,Ho2ZnTe2(SO7)2
2.8437999999999994,Ho-O-Zr,3,Ho2Zr2O7
2.4812,Ho-O-Zr,3,Ho2Zr2O7
3.0953000000000004,Ho-O-Zr,3,Ho2Zr8O19
0.0,Ag-Ho-Sn,3,Ho3(AgSn)4
0.0,Al-Ho-Ni,3,Ho3(AlNi3)2
0.0,Co-Ge-Ho,3,Ho3(CoGe2)2
0.0,Cu-Ge-Ho,3,Ho3(CuGe)4
0.0,Cu-Ho-Si,3,Ho3(CuSi)4
0.0,Cu-Ho-Sn,3,Ho3(CuSn)4
0.0,Fe-Ge-Ho,3,Ho3(FeGe)4
0.0,Cu-Ga-Ho,3,Ho3(Ga2Cu)2
0.0,Ga-Ho-Ni,3,Ho3(GaNi3)2
0.0,Ge-Ho-Pd,3,Ho3(GePd)4
0.0,Co-Ho-In,3,Ho3(In2Co)2
0.0,Ho-Ni-Ru,3,Ho3(NiRu2)2
0.0,Ho-P-Pd,3,Ho3(P3Pd10)2
0.0,Ho-Pd-Si,3,Ho3(Si3Pd10)2
0.0,Ho-Ni-Si,3,Ho3(SiNi3)2
0.0,Al-H-Ho-Ni,4,Ho3Al2(Ni3H4)2
0.0,Al-C-Ho,3,Ho3AlC
0.0,Al-Ho-N,3,Ho3AlN
0.0,Al-Ho-Ni,3,Ho3AlNi8
0.0,As-Ho,2,Ho3As
0.0,B-Ho-Mo,3,Ho3B7Mo
0.0,B-Ho-W,3,Ho3B7W
0.0,Bi-Ho,2,Ho3Bi
0.0,Co-Ho,2,Ho3Co
0.0,B-Co-Ho,3,Ho3Co11B4
0.0,Co-Ho-Si,3,Ho3Co2Si3
0.0,Co-Ho-Si,3,Ho3Co2Si7
0.0,Co-Ho-Sn,3,Ho3Co6Sn5
0.0,B-Cr-Ho,3,Ho3CrB7
0.3143000000000002,Cu-Ho-Sb,3,Ho3Cu3Sb4
1.7592,Cu-Ge-Ho-S,4,Ho3CuGeS7
1.8225,Cu-Ho-S-Si,4,Ho3CuSiS7
0.0,Er-Ho,2,Ho3Er
0.0,Bi-Er-Ho-Mn,4,Ho3Er3MnBi2
0.0,Fe-Ho,2,Ho3Fe29
0.0,Fe-Ho-Si,3,Ho3Fe2Si3
0.0,B-Fe-Ho,3,Ho3FeB7
0.0,Ga-Ho,2,Ho3Ga
0.0,Ag-Ga-Ho,3,Ho3Ga8Ag3
0.0,Ga-Ho-Ir,3,Ho3Ga8Ir3
0.0,Ga-Ho-Rh,3,Ho3Ga8Rh3
0.0,Ga-Ho-Pd,3,Ho3Ga9Pd2
0.0,Ga-Ho-Pt,3,Ho3Ga9Pt2
0.0,C-Ga-Ho,3,Ho3GaC
3.5644,Ga-Ho-O,3,Ho3GaO6
2.0941,Ga-Ho-S,3,Ho3GaS6
0.0,Ge-Ho-Ir,3,Ho3Ge3Ir2
0.0,Ge-Ho-Ru,3,Ho3Ge3Ru2
0.0,Ge-Ho,2,Ho3Ge4
0.0,Ge-Ho,2,Ho3Ge5
0.0,Hg-Ho,2,Ho3Hg
0.0,Ho-In,2,Ho3In
0.0,Ho-In,2,Ho3In5
0.0,C-Ho-In,3,Ho3InC
0.0,Ho-In-N,3,Ho3InN
0.0,Ho-Ir,2,Ho3Ir
0.0,Ho-Lu,2,Ho3Lu
0.0,Ho-Mg,2,Ho3Mg
0.0,Ga-Ge-Ho-Mn,4,Ho3Mn3Ga2Ge
0.0,Ga-Ho-Mn-Si,4,Ho3Mn3Ga2Si
0.0,B-Ho-Mn,3,Ho3MnB7
0.0,Ho-Ni,2,Ho3Ni
0.0,B-Ho-Ni,3,Ho3Ni13B2
0.0,B-Ho-Ni,3,Ho3Ni19B10
0.0,Ho-Ni,2,Ho3Ni2
0.0,B-Ho-Ni,3,Ho3Ni7B2
0.0,Ho-Np,2,Ho3Np
0.0,Ho-Os,2,Ho3Os
0.0,Ho-P,2,Ho3P
0.0,Ho-Pb,2,Ho3Pb
0.0,C-Ho-Pb,3,Ho3PbC
0.0,Ho-Pd,2,Ho3Pd2
0.0,Ho-Pd,2,Ho3Pd4
0.0,Ho-Pt,2,Ho3Pt
0.0,Ho-Pt,2,Ho3Pt4
0.0,Ho-Pu,2,Ho3Pu
0.0,B-Ho-Re,3,Ho3ReB7
0.0,Ho-O-Re,3,Ho3ReO7
1.4741,Ho-O-Re,3,Ho3ReO8
0.0,Ho-Ru,2,Ho3Ru
0.0,Ho-Ru,2,Ho3Ru2
3.6385,F-Ho-O-S,4,Ho3SOF5
0.0,Ho-Sb,2,Ho3Sb
0.5575999999999999,Au-Ho-Sb,3,Ho3Sb4Au3
0.3746999999999998,Ho-O-Sb,3,Ho3SbO3
2.7558,Ho-O-Sb,3,Ho3SbO7
0.0,Ho-Sc,2,Ho3Sc
0.0,Ho-S-Sc,3,Ho3Sc2S7
4.423,Ho-O-Sc,3,Ho3ScO6
0.0,Ho-Si,2,Ho3Si
0.0,Ho-Rh-Si-Sn,4,Ho3Si2(SnRh3)3
0.0,Ho-Sn,2,Ho3Sn7
0.0,C-Ho-Sn,3,Ho3SnC
2.0412000000000003,Ho-O-Ta,3,Ho3TaO7
3.4507,Ho-O-Ta,3,Ho3TaO7
3.4587000000000003,Ho-O-Ta,3,Ho3TaO7
0.0,Ho-Th,2,Ho3Th
0.0,Ho-Tl,2,Ho3Tl5
0.0,C-Ho-Tl,3,Ho3TlC
0.0,Ho-Tm,2,Ho3Tm
0.0,Ho-Mn-Tm,3,Ho3TmMn8
0.0,Ho-Zr,2,Ho3Zr
5.5299,B-Ho-O,3,Ho4(B2O5)3
0.0,B-Co-Ho,3,Ho4(CoB2)3
0.0,Ge-Ho-Ni,3,Ho4(NiGe4)3
0.0,Al-Ho,2,Ho4Al
0.0,C-Ho,2,Ho4C5
0.0,C-Ho,2,Ho4C7
1.1961,Cd-Ho-S,3,Ho4CdS7
0.8481999999999998,Cd-Ho-Se,3,Ho4CdSe7
0.0,Co-Ho,2,Ho4Co
0.0,Co-Ho,2,Ho4Co3
0.0,B-Co-Ho,3,Ho4CoB13
0.0,Co-Ho-Sn,3,Ho4CoSn8
0.0,Cr-Ho-S,3,Ho4CrS7
0.0,Cr-Ho-Se,3,Ho4CrSe7
0.3625999999999996,Cu-Ho-P,3,Ho4Cu5P7
0.0,Fe-Ho,2,Ho4Fe
0.0,Fe-Ho-Si,3,Ho4Fe29Si5
0.0,Fe-Ho-Si,3,Ho4Fe5Si3
0.1699999999999999,Fe-Ho-S,3,Ho4FeS7
0.0,Fe-Ho-Se,3,Ho4FeSe7
0.0,Fe-Ho-Sn,3,Ho4FeSn8
0.0,Fe-Ga-Ho,3,Ho4Ga12Fe
0.0,Ga-Ho-Ni,3,Ho4Ga12Ni
0.0,Ga-Ho-Pd,3,Ho4Ga12Pd
0.2188999999999996,Ga-Ho-Pt,3,Ho4Ga12Pt
0.0,Co-Ga-Ho,3,Ho4Ga16Co3
0.0,Ge-Ho-Ir,3,Ho4Ge6Ir7
0.0,Ge-Ho-Pd,3,Ho4Ge8Pd
0.0,Ge-Ho-Rh,3,Ho4Ge8Rh
0.0,Ge-Ho-Ru,3,Ho4Ge8Ru
0.0,Al-Hf-Ho,3,Ho4HfAl15
0.0,Ge-Ho-In-Ni,4,Ho4In(NiGe2)2
0.0,Ho-Ir,2,Ho4Ir
0.9813999999999998,Ho-Mg-O-W,4,Ho4Mg(WO4)6
1.0734,Ho-Mg-S,3,Ho4MgS7
0.1138000000000003,Ho-Mg-O-Ti,4,Ho4MgTi2O10
0.0,Ho-Mg-O-Ti,4,Ho4MgTi2O10
0.0,Ho-Mn,2,Ho4Mn
0.0,Ge-Ho-Mn,3,Ho4MnGe8
0.4255000000000004,Ho-Mn-S,3,Ho4MnS7
0.0,Ho-Mn-Si,3,Ho4MnSi7
0.0,Ho-Ni,2,Ho4Ni
0.0,C-Ho-Ni,3,Ho4Ni13C4
0.0,B-Ho-Ni,3,Ho4NiB13
0.0,B-Ho-Ni,3,Ho4NiB14
0.0,Ho-Ni-Sn,3,Ho4NiSn8
0.0,Gd-In-Ni,3,GdInNi4
1.7714000000000003,Gd-In-O,3,GdInO3
2.586,Gd-In-O,3,GdInO3
0.0,Gd-In-Pd,3,GdInPd
0.0,Gd-In-Pd,3,GdInPd2
0.0,Gd-In-Pt,3,GdInPt
0.0,Gd-In-Pt,3,GdInPt2
0.0,Gd-In-Pt,3,GdInPt4
0.0,Gd-In-Rh,3,GdInRh
0.0,Gd-Ir,2,GdIr3
0.0,Ag-Gd-Lu,3,GdLuAg2
0.0,Al-Gd-Lu,3,GdLuAl4
0.0,Cd-Gd-Lu,3,GdLuCd2
0.0,Cu-Gd-Lu,3,GdLuCu2
0.0,Gd-Ir-Lu,3,GdLuIr2
3.1346,Gd-Lu-O,3,GdLuO3
0.0,Gd-Lu-Rh,3,GdLuRh2
0.0,Gd-Lu-Ru,3,GdLuRu2
0.0,Gd-Mg,2,GdMg
0.0,Gd-Mg,2,GdMg2
0.0,Ag-Gd-Mg,3,GdMg2Ag
0.0,Gd-Mg-Ni,3,GdMg2Ni9
0.0,Gd-Mg,2,GdMg3
0.0,Gd-Mg-Ni,3,GdMg3Ni8
0.0,Ag-Gd-Mg,3,GdMgAg2
0.0,Au-Gd-Mg,3,GdMgAu
0.0,Au-Gd-Mg,3,GdMgAu2
0.0,Cd-Gd-Mg,3,GdMgCd2
0.0,Ga-Gd-Mg,3,GdMgGa
0.0,Gd-Hg-Mg,3,GdMgHg2
0.0,Gd-In-Mg,3,GdMgIn
0.0,Gd-Mg-Ni,3,GdMgNi4
0.0,Gd-Mg-Pd,3,GdMgPd
0.0,Gd-Mg-Pt,3,GdMgPt
0.0,Gd-Mg-Rh,3,GdMgRh2
0.0,Gd-Mg-Tl,3,GdMgTl
0.0,Gd-Mg-Zn,3,GdMgZn2
0.0,Gd-Mn,2,GdMn12
0.0,Gd-Mn,2,GdMn2
0.0,Gd-Mn-O,3,GdMn2O4
1.1582,Gd-Mn-O,3,GdMn2O5
0.0,Gd-Mn,2,GdMn3
0.0,Cu-Gd-Mn-O,4,GdMn4(CuO4)3
0.0,B-Gd-Mn,3,GdMnB4
0.0,Gd-Ge-Mn,3,GdMnGe
1.2932,Gd-Ge-Mn-O,4,GdMnGe2O7
0.4040999999999997,Gd-Mn-O,3,GdMnO3
0.0,Gd-Mn-Si,3,GdMnSi
0.0,C-Gd-Mo,3,GdMoC2
2.4595,Cl-Gd-Mo-O,4,GdMoClO4
3.371,F-Gd-Mo-O,4,GdMoO4F
0.0356999999999999,Gd-Mo-O,3,GdMoO5
0.0,Gd-N,2,GdN
0.0,Gd-N-O,3,GdNO5
0.2072000000000002,Gd-Nb-O,3,GdNbO4
0.0,Gd-Ni,2,GdNi
0.0,Gd-Ni,2,GdNi2
0.0,B-C-Gd-Ni,4,GdNi2B2C
0.0,Gd-Ni,2,GdNi3
0.0,Au-Gd-Ni,3,GdNi4Au
0.0,B-Gd-Ni,3,GdNi4B
0.0,Gd-Ni,2,GdNi5
0.0,As-Gd-Ni,3,GdNiAs
0.0,B-Gd-Ni,3,GdNiB4
0.0,Bi-Gd-Ni,3,GdNiBi
0.0,C-Gd-Ni,3,GdNiC2
0.0,Gd-Ge-Ni,3,GdNiGe3
0.0,Gd-Ni-O,3,GdNiO3
0.0,Gd-Ni-Pb,3,GdNiPb
0.0,Gd-Ni-Sb,3,GdNiSb
0.0,Gd-Np,2,GdNp3
0.0,Gd-O,2,GdO
0.0,Gd-O,2,GdO2
0.0,Gd-O,2,GdO3
3.3747,F-Gd-O,3,GdOF
3.2028,F-Gd-O,3,GdOF
2.9256,F-Gd-O,3,GdOF
3.2384,F-Gd-O,3,GdOF
0.0,Gd-Os,2,GdOs2
0.0,Gd-P,2,GdP
0.0,Gd-P,2,GdP5
3.0162,C-Gd-H-O-P,5,GdPH5CO7
3.2911,Gd-O-P,3,GdPO4
2.6130000000000004,Gd-O-P,3,GdPO4
0.0,Gd-P-Pd,3,GdPPd
0.0,Gd-P-Pt,3,GdPPt
0.2726999999999995,Gd-P-S,3,GdPS
2.0697,Gd-O-Pa,3,GdPaO4
0.0,Gd-Pa-Ru,3,GdPaRu2
0.0,Gd-Pa-Tc,3,GdPaTc2
0.0,Gd-Pb,2,GdPb3
0.0,Au-Gd-Pb,3,GdPbAu
0.0,Gd-Pd,2,GdPd
0.0,Gd-Pd-Pt,3,GdPd2Pt
0.0,Gd-Pd,2,GdPd3
0.0,Gd-Pt,2,GdPt
0.0,Gd-Pt,2,GdPt2
0.0,Gd-Pt,2,GdPt3
0.0,Gd-Re,2,GdRe2
0.0,B-Gd-Re,3,GdReB4
0.0,Gd-Rh,2,GdRh
0.0,Gd-Rh,2,GdRh2
0.0,Gd-Rh,2,GdRh3
0.0,C-Gd-Rh,3,GdRh3C
0.0,Gd-Rh,2,GdRh5
0.0,Gd-O-Rh,3,GdRhO3
0.0,Gd-Ru,2,GdRu2
0.0,C-Gd-Ru,3,GdRuC2
0.0,Gd-S,2,GdS
0.0,Gd-S,2,GdS2
0.1922000000000006,Gd-S,2,GdS2
1.6455,Br-Gd-S,3,GdSBr
1.6219,Cl-Gd-O-S,4,GdSClO4
0.0,F-Gd-S,3,GdSF
0.0,Gd-I-S,3,GdSI
1.4872,Gd-I-S,3,GdSI
0.2226,F-Gd-O-S,4,GdSO4F
0.0,Gd-Sb,2,GdSb
1.6361999999999997,Gd-O-Sb,3,GdSbO4
0.0,Gd-Pd-Sb,3,GdSbPd
0.0,Gd-Pt-Sb,3,GdSbPt
0.0,Gd-S-Sb,3,GdSbS
0.0,Gd-Ge-Sc,3,GdScGe
3.1418000000000004,Gd-O-Sc,3,GdScO3
1.1773999999999996,Gd-S-Sc,3,GdScS3
0.0,Gd-Sc-Si,3,GdScSi
0.0,Gd-Se,2,GdSe
0.0,Gd-Se,2,GdSe2
2.993,Cl-Gd-O-Se,4,GdSeClO3
0.0,Gd-Si,2,GdSi
0.0,Gd-Si,2,GdSi2
0.0,Gd-Ni-Si,3,GdSi2Ni
0.0,Gd-Rh-Si,3,GdSi2Rh3
0.0,Gd-Ir-Si,3,GdSi3Ir
0.0,Gd-Ni-Si,3,GdSi3Ni8
0.0,Ag-Gd-Si,3,GdSiAg
0.0,Gd-O-Si,3,GdSiO3
0.0,Gd-O-Si,3,GdSiO4
0.0,Gd-Pd-Si,3,GdSiPd
0.0,Gd-Pt-Si,3,GdSiPt
0.0,Gd-Pt-Si,3,GdSiPt2
0.0,Gd-Ru-Si,3,GdSiRu
0.0,Gd-Sn,2,GdSn2
0.0,Gd-Sn,2,GdSn3
0.0,Au-Gd-Sn,3,GdSnAu
0.0,Gd-Ge-Sn,3,GdSnGe
0.0,Gd-Pd-Sn,3,GdSnPd
0.0,Gd-Pd-Sn,3,GdSnPd2
0.0,Gd-Pt-Sn,3,GdSnPt
0.0,Gd-Pt-Sn,3,GdSnPt2
0.0,Gd-Rh-Sn,3,GdSnRh2
2.3374,Gd-O-Ta,3,GdTa3O9
2.8865,Gd-O-Ta,3,GdTa3O9
0.0,Gd-O-Ta,3,GdTa4O12
3.3217000000000003,Gd-O-Ta,3,GdTaO4
0.2627000000000001,Gd-O-Ta,3,GdTaO4
0.0,Gd-Tc,2,GdTc3
0.0,Gd-Te,2,GdTe
0.0,Gd-Te,2,GdTe2
0.3767000000000005,Cl-Gd-O-Te,4,GdTe2ClO5
0.0,Gd-Th,2,GdTh3
0.0,Gd-N-Th,3,GdThN2
0.0,Gd-O-Th,3,GdThO3
0.0,Gd-Ru-Th,3,GdThRu2
1.3352000000000004,Cd-F-Gd-O-Ti,5,GdTi2CdO6F
2.5972,Cd-Gd-O-Sb-Ti,5,GdTiCdSbO7
2.9895,Cl-Gd-O-Ti,4,GdTiClO3
0.0,C-Fe-Gd-Ti,4,GdTiFe11C
0.0,Fe-Gd-Si-Ti,4,GdTiFe9Si2
0.0,Gd-Ge-Ti,3,GdTiGe
2.6544000000000003,Bi-Gd-Nb-O-Ti,5,GdTiNbBi2O9
0.0,Gd-O-Ti,3,GdTiO3
0.0,Gd-Tl,2,GdTl
2.9492000000000003,Gd-O-Tl-W,4,GdTl(WO4)2
0.0,Gd-Tl,2,GdTl3
0.0,Gd-Pd-Tl,3,GdTlPd
0.8492000000000002,Gd-S-Tl,3,GdTlS2
0.4740999999999999,Gd-Se-Tl,3,GdTlSe2
0.0586000000000002,Gd-Te-Tl,3,GdTlTe2
0.0,Gd-Tl-Zn,3,GdTlZn
0.0,Fe-Gd-Ni-Tm,4,GdTm(FeNi4)2
0.0,Cd-Gd-Tm,3,GdTmCd2
0.0,Gd-Ir-Tm,3,GdTmIr2
3.1590000000000003,Gd-O-Tm,3,GdTmO3
0.0,Gd-Rh-Tm,3,GdTmRh2
0.0,Gd-U,2,GdU3
0.0,Al-Gd-U,3,GdUAl4
0.0,C-Gd-U,3,GdUC4
0.0,Gd-N-U,3,GdUN2
0.0,Fe-Gd-N-V,4,GdV2Fe10N
0.0,B-Gd-V,3,GdVB4
0.0,Gd-O-V,3,GdVO3
2.7181,Gd-O-V,3,GdVO4
0.0,C-Gd-W,3,GdWC2
2.5471000000000004,Cl-Gd-O-W,4,GdWClO4
0.0849999999999999,Gd-O-W,3,GdWO5
0.0,B-Co-Gd-Y,4,GdY(CoB)4
1.5830999999999995,Fe-Gd-O-Y,4,GdY(FeO3)2
3.2727,Gd-O-W-Y,4,GdY(WO4)3
0.0,Gd-Y,2,GdY3
0.3826,Fe-Gd-O-Y,4,GdY3(FeO3)4
2.9459,Gd-O-V-Y,4,GdY3V4O16
0.0,Al-Gd-Y,3,GdYAl4
0.0,Co-Gd-Y,3,GdYCo4
0.0,Co-Gd-Y,3,GdYCo6
0.0,Cu-Gd-Y,3,GdYCu2
0.0,Cu-Gd-Y,3,GdYCu4
0.0,Gd-H-Y,3,GdYH4
0.0,Gd-Hg-Y,3,GdYHg2
0.0,Gd-Ir-Y,3,GdYIr2
0.0,Gd-O-Y,3,GdYO2
0.0,Gd-Rh-Y,3,GdYRh2
0.0,Gd-Ru-Y,3,GdYRu2
2.8117,Gd-O-Sb-Sc-Y,5,GdYScSbO7
2.9628,Gd-O-V-Y,4,GdYV2O8
0.0,Gd-Zn,2,GdZn
0.0,Gd-Zn,2,GdZn2
0.6654999999999998,As-Gd-O-Zn,4,GdZnAsO
0.0,Ga-Gd-Zn,3,GdZnGa
0.0,Gd-Ge-Zn,3,GdZnGe
0.0,Gd-In-Zn,3,GdZnIn
0.5757000000000003,Gd-O-P-Zn,4,GdZnPO
0.0,Gd-Pd-Zn,3,GdZnPd
0.0,Gd-Rh-Zn,3,GdZnRh
0.0,Gd-Si-Zn,3,GdZnSi
0.0,Gd-Zr,2,GdZr
4.4744,F-Gd-Zr,3,GdZrF7
0.0,Gd-O-Zr,3,GdZrO3
0.0,Gd-Ru-Zr,3,GdZrRu2
0.0,Gd-Sb-Zr,3,GdZrSb
0.0,Ge,1,Ge
0.3433000000000001,Ge,1,Ge
0.4962000000000008,Bi-Ge-Te,3,Ge(BiTe2)2
2.9063,Br-F-Ge,3,Ge(BrF5)2
2.5421,Br-F-Ge,3,Ge(BrF5)2
0.0,F-Ge-N,3,Ge(NF3)2
2.3731,Ge-O-P,3,Ge(PO2)3
4.9705,F-Ge-S,3,Ge(SF6)2
0.0991999999999997,Ge-Sb-Te,3,Ge(SbTe)4
0.1915000000000004,Ge-Sb-Te,3,Ge(SbTe2)2
0.2427999999999999,Ge-Sb-Te,3,Ge(SbTe2)2
0.0,Ge-Sb-Te,3,Ge(SbTe2)2
2.8651,Ge-O-Se,3,Ge(SeO3)2
3.728,Ge-O-Se,3,Ge(SeO3)2
0.3594999999999997,As-Ge-Te,3,Ge(Te2As)2
3.5558,Ge-O-Te,3,Ge(TeO3)2
0.0,Ge-N-O,3,Ge11N11O5
0.5606999999999998,Bi-Ge-Te,3,Ge2Bi2Te5
0.0561999999999995,Bi-Ge-Te,3,Ge2Bi2Te5
0.0,Bi-Ge-O,3,Ge2BiO6
0.0,Ge-Mo,2,Ge2Mo
1.5225999999999995,Ge-Mo-O,3,Ge2MoO6
0.5717000000000008,Ge-N-O,3,Ge2N2O
1.8285,Ge-N-O,3,Ge2N2O
2.4911000000000003,Ge-N-O,3,Ge2N2O
2.6165,Ge-N-O,3,Ge2N2O
2.3691000000000004,Ge-N-O,3,Ge2N2O
2.3193,Ge-N-O,3,Ge2N2O
2.3947000000000003,Ge-N-O,3,Ge2N2O
2.4302,Ge-N-O,3,Ge2N2O
1.7353,Ge-N-O,3,Ge2N2O
2.3442,Ge-N-O,3,Ge2N2O
0.6820000000000004,Ge-O,2,Ge2O3
0.0,Ge-Os,2,Ge2Os
0.0,Ge-Pt,2,Ge2Pt
0.0,Ge-Pt,2,Ge2Pt3
0.2162999999999999,Ge-N-S,3,Ge2SN2
0.0,Ge-O-Sb,3,Ge2Sb2O5
0.2878999999999996,Ge-Sb-Te,3,Ge2Sb2Te5
0.0188999999999994,Ge-Sb-Te,3,Ge2Sb2Te5
0.0,Ge-Sb-Te,3,Ge2Sb2Te5
0.0,Ge-O-Sb,3,Ge2SbO6
1.6955,Ge-N-Se,3,Ge2SeN2
1.1343000000000003,Ge-S-Se,3,Ge2SeS
0.4092000000000002,As-Ge-Te,3,Ge2Te5As2
0.6868000000000003,Ge-N-Te,3,Ge2TeN2
0.2465999999999999,Ge-Se-Te,3,Ge2TeSe
0.0,Ge-W,2,Ge2W
2.2472000000000003,Ge-O-W,3,Ge2WO6
0.0,Bi-Ge-Te,3,Ge3(BiTe3)2
0.0,Ge-Sb-Te,3,Ge3(SbTe3)2
0.3427999999999995,As-Ge-Te,3,Ge3(Te3As)2
0.0,As-Ge,2,Ge3As
0.1620999999999997,As-Ge,2,Ge3As4
0.0,Au-Ge,2,Ge3Au
0.0,B-Ge,2,Ge3B
3.2039,B-Ge-H-N-O,5,Ge3BH4NO8
2.9794,Bi-Ge-O,3,Ge3Bi2O9
0.0,C-Ge,2,Ge3C
0.0,F-Ge,2,Ge3F
4.2902,F-Ge,2,Ge3F8
0.0,Ge-H,2,Ge3H
0.0,Ge-Ir,2,Ge3Ir
0.0,Ge-Mo,2,Ge3Mo
0.0,Ge-Mo,2,Ge3Mo5
0.0,C-Ge-Mo,3,Ge3Mo5C
0.3750999999999997,Ge-N,2,Ge3N2
1.9026,Ge-N,2,Ge3N4
1.9151,Ge-N,2,Ge3N4
1.6238,Ge-N,2,Ge3N4
1.4131999999999998,Ge-N,2,Ge3N4
2.064,Ge-N,2,Ge3N4
0.0,Ge-O,2,Ge3O
0.0,Ge-Os,2,Ge3Os
0.8456000000000001,Ge-Os,2,Ge3Os2
0.0,Ge-P,2,Ge3P
0.8687,Ge-Pb-Se,3,Ge3PbSe4
0.0,Ge-Pd,2,Ge3Pd
0.0,Ge-Pt,2,Ge3Pt
0.0,Ge-Pt,2,Ge3Pt2
0.0,Ge-Rh,2,Ge3Rh
0.0,Ge-Rh,2,Ge3Rh5
0.3435000000000006,Ge-Ru,2,Ge3Ru2
0.0,Ge-Sb,2,Ge3Sb
3.0481,Ge-O-Sb,3,Ge3Sb2O9
0.0,Ge-Te,2,Ge3Te
0.3346,Ge-Se-Te,3,Ge3Te2Se
0.0,Ge-Ir-Te,3,Ge3Te3Ir2
0.0,Ge-W,2,Ge3W5
0.0,Ge-Mo-W,3,Ge4(Mo3W)3
0.0,Ge-Ir,2,Ge4Ir
3.5035,Ge-O-Pb,3,Ge4PbO9
0.0,Ge-Rh,2,Ge4Rh
0.3877000000000006,As-Ge-Te,3,Ge4Te7As2
0.2028999999999996,As-Ge-Te,3,Ge5(Te4As)2
0.0,As-Ge-Te,3,Ge5(Te4As)2
4.3594,F-Ge,2,Ge5F12
0.0,Ge-O,2,Ge5O11
3.5718,Ge-O-P,3,Ge5P6O25
0.4144000000000005,Ge-Se-Te,3,Ge5Te4Se
0.0905,Ge-H-O,3,Ge7(H2O11)2
0.7414,Ge-H-O,3,Ge7(H2O11)2
3.0702000000000003,Ge-H-O,3,Ge7H18O23
2.4902,Ge-H-O,3,Ge7H18O23
3.1755,Ge-H-O,3,Ge7H18O23
2.9941,Ge-H-O,3,Ge7H18O23
2.946,Ge-H-O,3,Ge7H18O23
2.6785,Ge-H-O,3,Ge7H18O23
0.0,Ge-H-N-O,4,Ge7HN3O20
0.0,Ge-H-O,3,Ge7HO20
0.0,Ge-Ir,2,Ge7Ir3
0.0,Ge-O,2,Ge7O16
0.0,Ge-O,2,Ge7O23
0.0,As-Ge,2,GeAs
0.5112999999999999,As-Ge,2,GeAs
0.0,As-Ge,2,GeAs3
0.1764000000000001,As-Au-Ge,3,GeAsAu
0.0,As-Ge-W,3,GeAsW
0.0,Au-Ge,2,GeAu3
0.0,B-Ge,2,GeB
0.0,B-Ge-O,3,GeBO3
2.0537999999999994,Bi-Ge-O,3,GeBi2O5
2.3809,Bi-Ge-O,3,GeBi2O5
0.0,Bi-Ge,2,GeBi3
0.5721000000000007,Bi-Ge-Te,3,GeBi4Te7
0.0,Bi-Ge-O,3,GeBiO3
0.0,Bi-Ge-Pd,3,GeBiPd6
1.4259,Br-Ge,2,GeBr2
1.6580999999999992,C-Ge,2,GeC
0.0,C-Ge,2,GeC
2.3757,C-Ge,2,GeC
0.435,C-F-Ge-N,4,GeC2(NF)6
1.0470000000000002,C-Ge-N,3,GeCN2
0.4135,C-Ge-N,3,GeCN2
0.8840000000000001,C-Ge-N,3,GeCN2
2.5216000000000003,Cl-F-Ge,3,GeClF
4.1384,F-Ge,2,GeF2
4.0597,F-Ge,2,GeF2
5.500500000000001,F-Ge,2,GeF4
4.7302,F-Ge-H-N,4,GeH10(N2F3)2
4.7492,Cl-Ge-H,3,GeH3Cl
0.0,Ge-H,2,GeH4
1.1422,Ge-H,2,GeH4
5.9261,Ge-H,2,GeH4
5.7745,Ge-H,2,GeH4
2.0087,Ge-I,2,GeI2
2.0217,Ge-I,2,GeI2
1.965,Ge-I,2,GeI2
0.0,Ge-Ir,2,GeIr
0.0,Ge-Mo,2,GeMo3
0.0,As-Ge-Mo,3,GeMoAs
0.0,F-Ge-N,3,GeN2F5
0.0,F-Ge-N-O,4,GeN2OF6
0.0,F-Ge-N,3,GeN3F7
0.4271000000000002,Cl-Ge-N,3,GeNCl3
1.3714999999999993,Ge-O,2,GeO2
1.5228000000000002,Ge-O,2,GeO2
3.2454,Ge-O,2,GeO2
0.9845000000000002,Ge-O,2,GeO2
3.2493,Ge-O,2,GeO2
0.7937000000000003,Ge-O,2,GeO2
1.2157,Ge-O,2,GeO2
3.2501,Ge-O,2,GeO2
3.2779,Ge-O,2,GeO2
0.4889000000000001,Ge-P,2,GeP
0.0,Ge-P,2,GeP
0.0,Ge-P,2,GeP2
3.8284,Ge-O-P,3,GeP2O7
0.0,Ge-P,2,GeP3
2.7015,Cl-Ge-O-P,4,GePClO2
0.0,Ge-Pb,2,GePb3
2.2709000000000006,Ge-O-Pb,3,GePb3O5
1.6319,Ge-O-Pb,3,GePb3O5
1.4343999999999992,Ge-N-Pb,3,GePbN2
0.3539000000000003,Ge-N-Pb,3,GePbN2
0.0,Ge-O-Pb,3,GePbO3
0.0,Ge-Pd,2,GePd
0.0,Ge-Pd,2,GePd2
0.0,Ge-Pd,2,GePd5
0.0,Ge-O-Pd,3,GePdO3
1.3441,Ge-Pd-S,3,GePdS3
0.0,Ge-Pt,2,GePt
0.0,Ge-Pt,2,GePt2
0.0,Ge-Pt,2,GePt3
1.0195999999999996,Ge-Pt-S,3,GePtS
0.6596000000000002,Ge-Pt-Se,3,GePtSe
0.0,Ge-Rh,2,GeRh
0.0,Ge-Rh,2,GeRh2
0.0,Ge-Rh,2,GeRh3
0.1290999999999993,Ge-Ru,2,GeRu
0.5488,Ge-S,2,GeS
1.2375999999999996,Ge-S,2,GeS
1.6051000000000002,Ge-S,2,GeS2
2.5975,Ge-S,2,GeS2
0.0,Ge-Sb,2,GeSb
0.0,Ge-Sb,2,GeSb3
0.2689000000000003,Ge-Sb-Te,3,GeSb4Te7
0.0,Ge-Sb-Te,3,GeSbTe3
0.0153000000000007,Ge-Se,2,GeSe
0.8988,Ge-Se,2,GeSe
1.5188,Ge-Se,2,GeSe2
0.1550000000000002,Ge-Te,2,GeTe
0.6986999999999997,Ge-Te,2,GeTe
0.4068000000000005,Ge-Te,2,GeTe
0.0,Ge-Te,2,GeTe
0.8086000000000002,Ge-Te,2,GeTe
0.5438999999999998,Ge-Pb-Se-Te,4,GeTe(PbSe)2
0.2541000000000002,Ge-Pb-Te,3,GeTe2Pb
0.6227,Ge-Pb-Te,3,GeTe4Pb3
0.6566000000000001,Ge-Pb-Te,3,GeTe5Pb4
0.4128999999999996,As-Ge-Te,3,GeTe7As4
0.0,Ge-O-Te,3,GeTeO3
0.2558999999999996,Ge-Pt-Te,3,GeTePt
0.0,Ge-Rh-Te,3,GeTeRh
1.0682999999999998,Ge-O-W,3,GeWO4
3.683,Ge-O-W,3,GeWO4
1.0688,Ge-O-W,3,GeWO4
0.7273999999999994,C-H-N,3,H(C3N2)4
2.8934,C-H-O,3,H(CO)2
2.9384,C-H-O,3,H(CO)2
2.8549,C-H-O,3,H(CO)2
0.2986,H-O-W,3,H(WO3)2
1.1597000000000002,H-O-W,3,H(WO3)2
0.5541,H-O-W,3,H(WO3)2
0.5904999999999998,H-O-W,3,H(WO3)4
3.4173,C-H-N-O,4,H10C2N2O5
4.3740000000000006,Br-C-H-N,4,H10C3BrN
4.3218,C-H-I-N,4,H10C3IN
5.6346,C-Cl-H-N-O,5,H10C3NClO4
5.6683,C-Cl-H-N-O,5,H10C3NClO4
3.3653,C-H-N-O,4,H10C5NO6
1.9822,C-Cl-H-Ir-O,5,H10IrC2(ClO)3
2.0724,C-H-N-O-Pt,5,H10PtC(N4O)2
5.508,H-O-S,3,H10SO8
3.4288,C-H-N-O,4,H11C4NO10
5.6433,C-F-H-O-S,5,H11CSO8F3
2.5588,H-I-N-O,4,H11I(NO3)2
1.0035,H-O,2,H11O8
3.0964,Au-C-H-N,4,H12AuC4N
4.1779,C-H-I-N,4,H12C4IN
4.6425,C-F-H-I-N-O,6,H12C4IN(OF)2
3.4793,C-H-N-O-Se,5,H12C4Se(NO)2
4.6234,C-H-N-O,4,H12C5N2O
2.402,Cl-H-N-O-Os,5,H12OsN5Cl3O
1.8438,H-N-O-Pd,4,H12Pd(N5O4)2
2.1975,Cl-H-N-O-Pt,5,H12PtN6(ClO3)2
3.6572,F-H-N-O-W,5,H12WN3(OF)3
6.5368,C-F-H-N,4,H13C4NF2
2.4194,Cl-H-N-O-Ru,5,H13RuN5(ClO)2
5.0006,H-N-O-S,4,H13S2N3O8
5.124,H-N-O-S,4,H13S2N3O8
7.3363,C-F-H-N,4,H14C3NF5
3.0497000000000005,H-N-O-Ru-S,5,H14RuS2(N2O3)2
1.6554000000000002,C-H-N-O-Pd-S,6,H16PdC4S4(N5O3)2
2.2425,C-Cl-H-N-Pt,5,H16PtC4(NCl3)2
2.1643,C-Cl-H-N-Pt,5,H16PtC4(NCl3)2
1.6753999999999998,Cl-H-N-O-Rh,5,H16RhN5(Cl2O)3
6.2332,H,1,H2
0.2567,H,1,H2
1.5177999999999998,H,1,H2
7.3865,H,1,H2
7.4848,H,1,H2
8.0699,H,1,H2
6.6359,H,1,H2
9.3289,H,1,H2
7.4222,H,1,H2
8.8499,H,1,H2
7.5517,H,1,H2
9.7197,H,1,H2
8.1932,H,1,H2
0.0,H,1,H2
8.5338,H,1,H2
8.8022,H,1,H2
4.7128,C-H-N-O,4,H20C3(N2O5)2
0.8877999999999999,Cl-H-N-O-Ru,5,H22RuN7(ClO2)4
0.1743000000000001,C-F-H-N-Os,5,H24OsC8(NF3)2
2.8681,C-F-H-N-Pt,5,H24PtC8(NF3)2
6.167999999999999,C-H,2,H2C
3.9224,C-H-N-O,4,H2C2N2O
0.0,C-H-S,3,H2C2S
1.9102,C-H,2,H2C3
2.7327,C-H-N-O,4,H2C3N2O3
3.4866,C-H-O,3,H2C3O4
4.3521,Br-C-Cl-H,4,H2CBrCl
4.740600000000001,Br-C-Cl-H,4,H2CBrCl
4.662599999999999,Br-C-Cl-H,4,H2CBrCl
4.709899999999999,C-H-N,3,H2CN2
4.8561,C-H-N,3,H2CN2
4.1172,C-H-N,3,H2CN5
5.9519,C-H-O,3,H2CO
6.2388,C-H-O,3,H2CO
0.0228,C-H-O,3,H2CO
2.2187,C-H-O,3,H2CO
6.0267,C-H-O,3,H2CO
4.2073,C-H-O,3,H2CO2
4.8596,C-H-O,3,H2CO2
2.9173,C-H-O,3,H2CO2
3.2846,C-H-O,3,H2CO2
5.6848,C-H-O,3,H2CO3
5.8997,C-H-O-S,4,H2CSO4
0.0,H-I-N-O,4,H2INO2
3.3779,H-N-O,3,H2NO2
4.3309,H-O,2,H2O
5.4391,H-O,2,H2O
5.275399999999999,H-O,2,H2O
5.6674,H-O,2,H2O
5.4567,H-O,2,H2O
5.6654,H-O,2,H2O
5.3276,H-O,2,H2O
4.8393,H-O,2,H2O
0.0542000000000002,H-O,2,H2O
4.7589,H-O,2,H2O
5.4898,H-O,2,H2O
5.2923,H-O,2,H2O
5.520200000000001,H-O,2,H2O
5.5287,H-O,2,H2O
0.0,H-O,2,H2O
4.1497,H-O,2,H2O2
4.4853,H-O,2,H2O2
3.9997,C-H-O-Pb,4,H2Pb(CO2)2
2.8007,H-O-Pb-S,4,H2Pb4SO8
4.4568,Cl-H-O-Pb,4,H2PbCl2O7
2.5105,H-O-Pb,3,H2PbO2
1.2919999999999998,H-O-Pb-Pd,4,H2Pd(PbO2)2
2.2702000000000004,H-I-O-Pb-Pt,5,H2PtPbI6O19
4.4350000000000005,H-S,2,H2S
0.0,H-S,2,H2S
4.0901,H-S,2,H2S
4.3246,H-S,2,H2S
3.5201,H-S,2,H2S
5.844899999999999,H-O-S,3,H2SO4
5.5584,H-O-S,3,H2SO4
5.5958,H-O-S,3,H2SO4
6.421,H-O-S,3,H2SO4
6.109999999999999,H-O-S,3,H2SO4
0.0,H-Se,2,H2Se
1.1286,H-N-O-Se,4,H2SeNO4
4.4331000000000005,H-O-Se,3,H2SeO3
4.4855,H-O-Se,3,H2SeO3
3.3831,H-O-Se,3,H2SeO4
3.393,H-O-Se,3,H2SeO4
0.0,H-W,2,H2W