eg,chemsys,nelements,formula
2.8906,B-Ca-Cl-O,4,Ca2B5ClO10
5.0182,B-Ca-Cl-H-O,5,Ca2B5H2ClO10
5.0242,B-Ca-Cl-H-O,5,Ca2B5H2ClO10
5.5382,B-Ca-H-O,4,Ca2B5H3O11
0.0,B-Ca-Os,3,Ca2B5Os3
0.0,As-B-Ca-O,4,Ca2BAsO8
4.576599999999999,B-Ca-Cl-O,4,Ca2BClO3
3.0020000000000007,B-Ca-H-N,4,Ca2BHN2
3.333,B-Ca-Cl-N,4,Ca2BN2Cl
2.9265,B-Ca-F-N,4,Ca2BN2F
0.7538,Be-Ca-F-O-P,5,Ca2Be2P2O9F
4.9868,Be-Ca-O-Si,4,Ca2BeSi2O7
0.0,Bi-Ca,2,Ca2Bi
2.0966,Bi-Ca-O,3,Ca2Bi2O5
0.0,Bi-Ca-O,3,Ca2Bi3O8
0.0,Bi-Ca,2,Ca2Bi7
3.2393,As-Bi-Ca-O,4,Ca2BiAsO6
0.0002000000000004,Au-Bi-Ca,3,Ca2BiAu
0.1697999999999995,Bi-Ca-N,3,Ca2BiN3
0.8357000000000001,Bi-Ca-O-Sb,4,Ca2BiSbO6
1.7213000000000005,Bi-Ca-O-Sb,4,Ca2BiSbO6
1.9746,Bi-Ca-O-Sb,4,Ca2BiSbO6
0.5237999999999996,Bi-Ca-O-W,4,Ca2BiWO6
1.8101000000000005,Bi-Ca-O-W,4,Ca2BiWO6
0.0,Bi-Ca-O-W,4,Ca2BiWO6
0.0,Br-Ca-F,3,Ca2Br2F
2.4254,Br-Ca-N,3,Ca2BrN
4.944599999999999,C-Ca-F-O,4,Ca2CO3F2
0.8529999999999998,As-Ca-Cd,3,Ca2CdAs2
0.0,Ca-Cd-Ga,3,Ca2CdGa
0.0,Ca-Cd-Hg,3,Ca2CdHg
0.0,Ca-Cd-In,3,Ca2CdIn
0.0,Ca-Cd-N,3,Ca2CdN2
0.3893,Ca-Cd-N,3,Ca2CdN2
1.2927000000000004,Ca-Cd-P,3,Ca2CdP2
0.0,Ca-Cd-Pb,3,Ca2CdPb
0.0,Ca-Cd-Pd,3,Ca2CdPd2
0.0,Ca-Cd-Pt,3,Ca2CdPt2
0.0,Ca-Cd-Sn,3,Ca2CdSn
1.4500000000000002,Ca-Ce-Ni-O,4,Ca2CeNiO6
1.875,Ca-Ce-O,3,Ca2CeO4
2.2602999999999995,Ca-Ce-O,3,Ca2CeO4
0.0,Ca-Cl-F,3,Ca2Cl2F
0.0,As-Ca-Co-O,4,Ca2Co(AsO5)2
0.0,Ca-Co-P,3,Ca2Co12P7
0.0,Ca-Co-O,3,Ca2Co2O5
0.0431000000000001,Ca-Co-O,3,Ca2Co3O8
0.0,Ca-Co-O,3,Ca2Co3O8
0.0,Ca-Co-O,3,Ca2Co9O13
1.8722,As-Ca-Co-H-O,5,Ca2CoAs2(HO4)2
0.0,C-Ca-Co-N-O,5,Ca2CoC(NO)2
0.0,Ca-Co-Ir-O,4,Ca2CoIrO6
0.0,Ca-Co-N,3,Ca2CoN2
0.7968,Ca-Co-O,3,Ca2CoO3
0.9521,Ca-Co-O,3,Ca2CoO3
0.9151,Ca-Co-O,3,Ca2CoO3
0.0745999999999997,Ca-Co-O-Rh,4,Ca2CoRhO6
0.6627000000000001,Ca-Co-O-Sb,4,Ca2CoSbO6
2.9093000000000004,Ca-Co-Ni-O-Si,5,Ca2CoSi4NiO12
2.0668,Ca-Co-O-Te,4,Ca2CoTeO6
0.0,Ca-Co-W,3,Ca2CoW
0.0,Ca-Co-O-W,4,Ca2CoWO6
1.4930000000000003,Ca-Co-O-W,4,Ca2CoWO6
0.9077000000000002,Ca-Cr-O,3,Ca2Cr2O5
0.8042999999999996,Ca-Cr-O,3,Ca2Cr2O5
0.8584000000000003,Ca-Cr-O,3,Ca2Cr3O8
0.4883000000000002,Ca-Cr-O,3,Ca2Cr3O8
0.3945999999999996,Ca-Cr-O,3,Ca2Cr9O13
1.7324000000000002,Ca-Cr-Fe-O,4,Ca2CrFeO5
0.0,Ca-Cr-Ir-O,4,Ca2CrIrO6
0.0,Ca-Cr-N,3,Ca2CrN2
0.0,Ca-Cr-N,3,Ca2CrN3
0.0,Ca-Cr-O,3,Ca2CrO5
0.0,Ca-Cr-O,3,Ca2CrO8
0.1724999999999998,Ca-Cr-O-Os,4,Ca2CrOsO6
2.0309,Ca-Cr-O-Sb,4,Ca2CrSbO6
1.9551,Ca-Cr-O-Sb,4,Ca2CrSbO6
0.0,Ca-Cr-O-W,4,Ca2CrWO6
1.8837,Ca-Cr-O-W,4,Ca2CrWO6
1.7595,Ca-Cr-O-W,4,Ca2CrWO6
1.6023000000000005,Ca-Cr-O-W,4,Ca2CrWO6
0.0,Ca-Cu,2,Ca2Cu
0.0,Br-Ca-Cu-O,4,Ca2Cu(BrO)2
0.0,C-Ca-Cu-O,4,Ca2Cu(CO)2
0.0,Ca-Cl-Cu-O,4,Ca2Cu(ClO)2
0.0,Ca-Cl-Cu-S,4,Ca2Cu(SCl)2
0.0,Ca-Cu-O-S,4,Ca2Cu(SO)2
0.0,Ca-La-Mn-O,4,CaLa3Mn4O12
0.0,Ca-La-Si,3,CaLa3Si8
2.3814,Ca-Fe-Ga-La-O,5,CaLa4Ga2(FeO6)2
1.157,Ca-La-Ni-O-W,5,CaLa4Ni3WO12
0.0,Ca-La-O-Ru-Ti,5,CaLa4Ti3RuO15
0.0,Ag-Ca-La,3,CaLaAg2
4.3925,Al-Ca-La-O,4,CaLaAl3O7
4.3945,Al-Ca-La-O,4,CaLaAl3O7
0.0,Al-Ca-La,3,CaLaAl4
0.0,Au-Ca-La,3,CaLaAu2
0.0,Ca-Cd-La,3,CaLaCd2
0.4950000000000001,Ca-Cr-La-O,4,CaLaCr2O6
0.0,Bi-Ca-Cr-La-O,5,CaLaCrBiO6
0.0,Ca-Co-Cr-La-O,5,CaLaCrCoO6
0.0,Ca-Cr-Cu-La-O,5,CaLaCrCuO6
0.0,Ca-Cr-Fe-La-O,5,CaLaCrFeO6
1.5053,Ca-Cr-La-Mo-O,5,CaLaCrMoO6
0.6463000000000001,Ca-Cr-La-Ni-O,5,CaLaCrNiO6
0.6528999999999998,Ca-Cr-La-O-Sb,5,CaLaCrSbO6
1.4122000000000003,Ca-Cr-La-O-Sb,5,CaLaCrSbO6
0.0,Ca-Cr-La-O-Sn,5,CaLaCrSnO6
2.1181,Ca-Cr-La-O-Sn,5,CaLaCrSnO6
2.1252000000000004,Ca-Cr-La-O-W,5,CaLaCrWO6
0.2630000000000008,Ca-Eu-La-O-Sb,5,CaLaEuSbO6
0.0,Bi-Ca-Fe-La-O,5,CaLaFeBiO6
0.0,Ca-Co-Fe-La-O,5,CaLaFeCoO6
0.0,Ca-Cu-Fe-La-O,5,CaLaFeCuO6
1.1514000000000006,Ca-Fe-La-Mo-O,5,CaLaFeMoO6
0.0,Ca-Fe-La-Ni-O,5,CaLaFeNiO6
0.3579999999999996,Ca-Fe-La-Ni-O,5,CaLaFeNiO6
0.5136000000000003,Ca-Fe-La-O,4,CaLaFeO4
1.4018999999999997,Ca-Fe-La-O,4,CaLaFeO4
2.2547,Ca-Fe-La-O-Sb,5,CaLaFeSbO6
2.1986000000000008,Ca-Fe-La-O-Sn,5,CaLaFeSnO6
0.2203999999999997,Ca-Fe-La-O-W,5,CaLaFeWO6
2.471,Ca-Fe-La-O-W,5,CaLaFeWO6
3.2684,Ca-Ga-La-O,4,CaLaGa3O7
0.0,Ca-Cu-Ga-La-O,5,CaLaGaCuO5
3.1802,Ca-Ga-La-O,4,CaLaGaO4
3.4555,Ca-Ga-La-O,4,CaLaGaO4
0.0,Ca-Hg-La,3,CaLaHg2
0.0,Ca-La-Mg,3,CaLaMg14
0.0,Ca-La-Mg,3,CaLaMg2
0.0,Ca-La-Mg,3,CaLaMg6
4.446700000000001,Al-Ca-H-La-Mg-O-Si,7,CaLaMgAl2Si3HO13
3.9825,Ca-La-Mg-O-Ta,5,CaLaMgTaO6
0.0,Ca-La-Mn-O,4,CaLaMn2O6
0.0,Ca-Cr-La-Mn-O,5,CaLaMnCrO6
1.3633000000000006,Ca-Fe-La-Mn-O,5,CaLaMnFeO6
1.4781000000000004,Ca-Fe-La-Mn-O,5,CaLaMnFeO6
1.1277999999999997,Ca-La-Mn-Mo-O,5,CaLaMnMoO6
2.0477,Ca-La-Mn-Nb-O,5,CaLaMnNbO6
0.0,Ca-La-Mn-O-Ru,5,CaLaMnRuO6
0.4520999999999997,Ca-La-Mn-O-Sn,5,CaLaMnSnO6
0.0,Ca-La-O,3,CaLaO3
2.6980000000000004,Ca-La-Mn-O-Pr,5,CaLaPrMnO6
0.0,Ca-La-Si,3,CaLaSi4
2.3315,Ca-Cr-La-O-Ti,5,CaLaTiCrO6
0.0,Ca-Fe-La-O-Ti,5,CaLaTiFeO6
0.2435999999999998,Ca-La-Mn-O-Ti,5,CaLaTiMnO6
1.2525000000000004,Ca-Cr-La-O-V,5,CaLaVCrO6
0.0,Ca-Fe-La-O-V,5,CaLaVFeO6
1.0776000000000003,Ca-Fe-La-O-V,5,CaLaVFeO6
1.0324999999999998,Ca-Fe-La-O-V,5,CaLaVFeO6
0.0,Ca-La-Zn,3,CaLaZn2
3.9013,Ca-Lu-O,3,CaLu2O4
0.0,Ca-Hg-Lu,3,CaLuHg2
0.0,Ca-Lu-Mn-O,4,CaLuMn2O6
0.0,Ca-Lu-Pd,3,CaLuPd2
0.0,Ca-Lu-Rh,3,CaLuRh2
0.0,Ca-Mg,2,CaMg
0.2543999999999999,Ca-Mg,2,CaMg
0.0856999999999996,Ca-Mg,2,CaMg
5.0091,C-Ca-Mg-O,4,CaMg(CO3)2
2.3479,Ca-Mg-P-Se,4,CaMg(PSe3)2
0.0,Ca-Mg-O-Si,4,CaMg(SiO)2
4.5994,Ca-Mg-O-Si,4,CaMg(SiO3)2
4.6601,Ca-Mg-O-Si,4,CaMg(SiO3)2
4.9716,Ca-Mg-O-Si,4,CaMg(SiO3)2
0.0,Al-Ca-Mg,3,CaMg14Al
0.0,Al-Ca-Mg-O,4,CaMg14AlO16
0.0,B-Ca-Mg,3,CaMg14B
0.0,Bi-Ca-Mg,3,CaMg14Bi
0.0,Bi-Ca-Mg-O,4,CaMg14BiO16
0.0,C-Ca-Mg,3,CaMg14C
1.0687999999999995,C-Ca-Mg-O,4,CaMg14CO16
0.9596999999999998,C-Ca-Mg-O,4,CaMg14CO16
0.0,Ca-Cd-Mg,3,CaMg14Cd
3.336499999999999,Ca-Cd-Mg-O,4,CaMg14CdO16
2.6887,Ca-Cd-Mg-O,4,CaMg14CdO16
0.0,Ca-Co-Mg,3,CaMg14Co
0.6067999999999998,Ca-Co-Mg-O,4,CaMg14CoO16
1.0614999999999997,Ca-Co-Mg-O,4,CaMg14CoO16
0.0,Ca-Cr-Mg,3,CaMg14Cr
1.0648,Ca-Cr-Mg-O,4,CaMg14CrO16
0.4305000000000003,Ca-Cr-Mg-O,4,CaMg14CrO16
0.0,Ca-Cu-Mg,3,CaMg14Cu
0.0,Ca-Cu-Mg-O,4,CaMg14CuO16
0.0,Ca-Fe-Mg,3,CaMg14Fe
0.0,Ca-Fe-Mg-O,4,CaMg14FeO16
2.6849,Ca-Fe-Mg-O,4,CaMg14FeO16
0.0,Ca-Ga-Mg,3,CaMg14Ga
0.0,Ca-Mg-Mn,3,CaMg14Mn
2.0248,Ca-Mg-Mn-O,4,CaMg14MnO16
1.6882,Ca-Mg-Mn-O,4,CaMg14MnO16
0.0,Ca-Mg-Mo,3,CaMg14Mo
0.0,Ca-Mg-Nb,3,CaMg14Nb
0.2896000000000001,Ca-Mg-Nb-O,4,CaMg14NbO16
0.0,Ca-Mg-Nb-O,4,CaMg14NbO16
0.0,Ca-Mg-Ni,3,CaMg14Ni
3.5849,Ca-Mg-Ni-O,4,CaMg14NiO16
3.4417,Ca-Mg-Ni-O,4,CaMg14NiO16
0.0,Ca-Mg-Sb,3,CaMg14Sb
0.0,Ca-Mg-Si,3,CaMg14Si
0.7162000000000006,Ca-Mg-O-Si,4,CaMg14SiO16
0.1887000000000007,Ca-Mg-O-Si,4,CaMg14SiO16
0.0,Ca-Mg-Sn,3,CaMg14Sn
0.2886000000000006,Ca-Mg-O-Sn,4,CaMg14SnO16
0.0,Ca-Mg-O-Sn,4,CaMg14SnO16
0.0,Ca-Mg-Ti,3,CaMg14Ti
0.0,Ca-Mg-O-Ti,4,CaMg14TiO16
0.0,Ca-Mg-V,3,CaMg14V
1.2276999999999996,Ca-Mg-O-V,4,CaMg14VO16
1.4613000000000005,Ca-Mg-O-V,4,CaMg14VO16
0.0,Ca-Mg-W,3,CaMg14W
0.0,Ca-Mg-Zn,3,CaMg14Zn
3.3667000000000007,Ca-Mg-O-Zn,4,CaMg14ZnO16
3.5234999999999994,Ca-Mg-O-Zn,4,CaMg14ZnO16
0.0,Ca-Mg-Zr,3,CaMg14Zr
0.0,Ca-Mg,2,CaMg15
0.0,Ca-Mg,2,CaMg2
0.1773000000000002,Ca-Mg,2,CaMg2
5.7586,Ca-Mg-O-S,4,CaMg2(SO4)3
0.1432999999999999,Al-Ca-Mg-O-Si,5,CaMg2Al4SiO12
3.2783,Al-Ca-Mg-O,4,CaMg2Al6O12
1.9969,Ca-Mg-N,3,CaMg2N2
0.0,Ca-Mg-Ni,3,CaMg2Ni9
0.0,Ca-Mg,2,CaMg3
4.815300000000001,C-Ca-Mg-O,4,CaMg3(CO3)4
4.7023,Ca-Mg-O-Si,4,CaMg3(SiO3)4
3.904,Ca-Mg-O,3,CaMg3O4
0.0,Ca-Mg,2,CaMg5
0.0,Al-Ca-Mg,3,CaMg6Al
0.0,Al-Ca-Mg-O,4,CaMg6AlO8
0.0,B-Ca-Mg,3,CaMg6B
0.0,Bi-Ca-Mg,3,CaMg6Bi
0.0,Bi-Ca-Mg-O,4,CaMg6BiO8
0.0,C-Ca-Mg,3,CaMg6C
0.4992999999999998,C-Ca-Mg-O,4,CaMg6CO8
0.7787999999999995,C-Ca-Mg-O,4,CaMg6CO8
0.0,Ca-Cd-Mg,3,CaMg6Cd
1.641,Ca-Cd-Mg-O,4,CaMg6CdO8
1.7076000000000002,Ca-Cd-Mg-O,4,CaMg6CdO8
0.0,Ca-Co-Mg,3,CaMg6Co
1.3336999999999994,Ca-Co-Mg-O,4,CaMg6CoO8
1.7251000000000003,Ca-Co-Mg-O,4,CaMg6CoO8
0.0,Ca-Cr-Mg,3,CaMg6Cr
0.0,Ca-Cr-Mg-O,4,CaMg6CrO8
0.0,Ca-Cu-Mg,3,CaMg6Cu
0.0,Ca-Cu-Mg-O,4,CaMg6CuO8
0.0,Ca-Fe-Mg,3,CaMg6Fe
1.9144,Ca-Fe-Mg-O,4,CaMg6FeO8
2.0330999999999992,Ca-Fe-Mg-O,4,CaMg6FeO8
0.0,Ca-Ga-Mg,3,CaMg6Ga
0.0,Ca-Mg-Mn,3,CaMg6Mn
1.0767999999999995,Ca-Mg-Mn-O,4,CaMg6MnO8
1.2911,Ca-Mg-Mn-O,4,CaMg6MnO8
0.0,Ca-Mg-Mo,3,CaMg6Mo
0.0,Ca-Mg-Nb,3,CaMg6Nb
0.0,Ca-Mg-Nb-O,4,CaMg6NbO8
0.0,Ca-Mg-Ni,3,CaMg6Ni
2.6979,Ca-Mg-Ni-O,4,CaMg6NiO8
2.9159000000000006,Ca-Mg-Ni-O,4,CaMg6NiO8
0.0,Ca-Mg-Sb,3,CaMg6Sb
0.0,Ca-Mg-Si,3,CaMg6Si
0.0,Ca-Mg-O-Si,4,CaMg6SiO8
0.0862999999999996,Ca-Mg-O-Si,4,CaMg6SiO8
0.0,Ca-Mg-Sn,3,CaMg6Sn
0.0,Ca-Mg-O-Sn,4,CaMg6SnO8
0.0,Ca-Mg-Ti,3,CaMg6Ti
0.0,Ca-Mg-O-Ti,4,CaMg6TiO8
0.0,Ca-Mg-V,3,CaMg6V
0.8140000000000001,Ca-Mg-O-V,4,CaMg6VO8
1.2070000000000007,Ca-Mg-O-V,4,CaMg6VO8
0.0,Ca-Mg-W,3,CaMg6W
0.0,Ca-Mg-Zn,3,CaMg6Zn
2.7902,Ca-Mg-O-Zn,4,CaMg6ZnO8
2.6121,Ca-Mg-O-Zn,4,CaMg6ZnO8
0.0,Ca-Mg-Zr,3,CaMg6Zr
0.0,Ca-Mg,2,CaMg7
4.6611,Ca-Mg-O-Si,4,CaMg7(SiO3)8
3.9404,As-Ca-F-Mg-O,5,CaMgAsO4F
3.9326,As-Ca-F-Mg-O,5,CaMgAsO4F
0.0,Bi-Ca-Mg-O-Sb,5,CaMgBiSbO6
1.4974999999999996,Bi-Ca-Mg-O-Sb,5,CaMgBiSbO6
0.0,Ca-Cd-Mg,3,CaMgCd
0.0,Ca-Cd-Mg,3,CaMgCd2
0.0,Ca-Ge-Mg,3,CaMgGe
3.6234,Ca-Ge-Mg-O,4,CaMgGeO4
0.0,Ca-Hg-Mg,3,CaMgHg2
0.0,Ca-Mg-Ni,3,CaMgNi4
1.873,Ca-H-Mg-Ni,4,CaMgNiH4
0.0,Ca-Mg-O,3,CaMgO3
5.564,Ca-F-Mg-O-P,5,CaMgPO4F
0.0,Ca-Mg-Pb,3,CaMgPb
0.0,Ca-Mg-Pd,3,CaMgPd
2.9192,Ca-Mg-S,3,CaMgS2
0.0,Ca-Mg-Si,3,CaMgSi
4.6294,Ca-Mg-O-Si,4,CaMgSiO4
4.6952,Ca-Mg-O-Si,4,CaMgSiO4
0.0,Ca-Mg-Sn,3,CaMgSn
0.0,Ca-Mg-Tl,3,CaMgTl2
0.8268000000000001,Ca-Mg-O-V,4,CaMgVO5
0.0,Ca-Mg-Zn,3,CaMgZn
1.6037000000000003,Ca-Ge-Mn-O,4,CaMn(GeO3)2
4.4715,Ca-Mn-O-P,4,CaMn(PO3)4
2.8319,Ca-Mn-O-Si,4,CaMn(SiO3)2
0.8432000000000001,Ca-Mn-O-P,4,CaMn2(P2O7)2
1.0134,Ca-Mn-O-P,4,CaMn2(P2O7)2
1.2118,Ca-Mn-O-P,4,CaMn2(P2O7)2
0.0,Ca-Mn-O-P,4,CaMn2(PO5)2
1.1615000000000002,Ca-Mn-O-Si,4,CaMn2(SiO3)4
0.0,Ca-Mn,2,CaMn28
0.0,Ca-Cu-Mn-O-Ru,5,CaMn2Cu3(RuO6)2
1.7105,Ca-F-Mn,3,CaMn2F10
0.9918,Ca-Mn-O,3,CaMn2O4
1.6466,Ca-Mn-O,3,CaMn2O4
1.2163,Ca-Mn-O,3,CaMn2O4
0.0522,Ca-Mn-O,3,CaMn2O4
0.6429,Ca-Mn-O,3,CaMn2O4
0.0,Ca-Mn-O,3,CaMn2O4
1.2289,Ca-Mn-O,3,CaMn2O4
0.6416999999999997,Ca-Mn-O,3,CaMn2O4
0.7593999999999999,Ca-Mn-O,3,CaMn2O4
0.8246000000000002,Ca-Mn-O,3,CaMn2O4
1.5732,Ca-Mn-O,3,CaMn2O4
0.5781000000000001,Ca-Mn-O,3,CaMn2O4
2.0103,Ca-Mn-O,3,CaMn2O4
0.0,Ca-Mn-O,3,CaMn2O5
3.3107000000000006,Ca-H-Mn-O-P,5,CaMn2P2(H2O5)2
0.0,Ca-Mn-S,3,CaMn2S5
0.0,Ca-Mn-Te,3,CaMn2Te3
0.0,Ca-Cu-Mn-O-V,5,CaMn2V4CuO12
0.0,Ca-Cu-Mn-O-Ru,5,CaMn3Cu3RuO12
0.5937999999999999,Ca-Mn-O,3,CaMn3O4
0.7771999999999997,Ca-Mn-O,3,CaMn3O4
0.0,Ca-Mn-O,3,CaMn3O6
0.3398999999999998,Ca-Mn-O-P,4,CaMn3P3O13
0.0,Ca-Mn-O-V,4,CaMn3V4O12
0.5004999999999997,Ca-Mn-O-V,4,CaMn3V4O12
0.1719999999999997,Ca-Mn-O-V,4,CaMn3V4O12
0.4150999999999998,Ca-Mn-O-V,4,CaMn3V4O12
0.1282,Ag-Ca-Mn-O,4,CaMn4(AgO4)4
0.214,Ag-Ca-Mn-O,4,CaMn4(AgO4)4
1.1606999999999998,Ca-Co-Mn-O,4,CaMn4(CoO6)2
0.4937,Ca-Co-Mn-O,4,CaMn4(CoO6)2
0.0,Ca-Cu-Mn-O,4,CaMn4(CuO4)3
0.0,Ca-Mn-O,3,CaMn4O6
0.2524999999999999,Ca-Mn-O,3,CaMn4O8
0.4180000000000001,Ca-Mn-O,3,CaMn4O8
0.0,Ca-Mn-O,3,CaMn4O8
0.0,Ca-Mn-O,3,CaMn4O9
0.0,Ca-Mn-O,3,CaMn5O7
0.3680999999999998,Ca-F-Mn-O,4,CaMn6(OF2)4
0.6762999999999999,Ca-F-Mn-O,4,CaMn6(OF2)4
0.0765,Ca-F-Mn-O,4,CaMn6(OF2)4
0.5078,Ca-F-Mn-O,4,CaMn6(OF2)4
0.6161000000000001,Ca-F-Mn-O,4,CaMn6(OF2)4
0.6681999999999999,Ca-F-Mn-O,4,CaMn6(OF2)4
0.2847999999999999,Ca-F-Mn-O,4,CaMn6(OF2)4
0.165,Ca-F-Mn-O,4,CaMn6(OF2)4
0.2836000000000001,Ca-F-Mn-O,4,CaMn6(OF2)4
0.9524,Ca-F-Mn-O,4,CaMn6O5F7
0.5447000000000002,Ca-F-Mn-O,4,CaMn6O5F7
0.2165000000000001,Ca-F-Mn-O,4,CaMn6O5F7
0.4319999999999999,Ca-F-Mn-O,4,CaMn6O5F7
0.2091000000000002,Ca-F-Mn-O,4,CaMn6O5F7
0.0,Ca-Mn-O,3,CaMn7O12
0.5138999999999996,Ca-Mn-O,3,CaMn7O8
0.0,Ca-F-Mn-O,4,CaMn8(OF)8
0.0,Ca-F-Mn-O,4,CaMn8O13F3
0.0045999999999999,Ca-F-Mn-O,4,CaMn8O13F3
0.0369000000000001,Ca-F-Mn-O,4,CaMn8O13F3
0.2503999999999999,Ca-F-Mn-O,4,CaMn8O13F3
0.5990000000000006,Ca-Cd-Mn-O,4,CaMn9CdO10
0.4390999999999998,Ca-Cd-Mn-O,4,CaMn9CdO10
0.8146000000000004,Ca-Cd-Mn-O,4,CaMn9CdO10
0.6557,Ca-Cd-Mn-O,4,CaMn9CdO10
0.7037,Ca-Cd-Mn-O,4,CaMn9CdO10
2.0553,As-Ca-H-Mn-O,5,CaMnAs2(H3O5)2
1.2868,As-Ca-Mn-O,4,CaMnAsO5
0.0,Bi-Ca-Mn,3,CaMnBi2
0.0,Ca-Cu-Mn-O-Ru,5,CaMnCu3(RuO4)3
0.9425999999999995,Ca-F-Mn,3,CaMnF4
1.5558,Ca-F-Mn,3,CaMnF5
0.995,Ca-F-Mn,3,CaMnF5
3.2129,Ca-F-Mn,3,CaMnF6
0.7048999999999994,Bi-Ca-Fe-Mn-O,5,CaMnFeBiO6
0.0,Ca-Fe-Ge-Mn,4,CaMnFeGe2
0.0,Ca-Fe-Mn-O,4,CaMnFeO5
0.0,Ca-Ge-Mn,3,CaMnGe
1.7912999999999997,Ca-Ge-Mn-O,4,CaMnGeO4
0.0,Ca-Ir-Mn-O,4,CaMnIrO6
0.0,Ca-Mn-N,3,CaMnN2
1.7860999999999998,Ca-Mn-O,3,CaMnO2
2.1657,Ca-Mn-O,3,CaMnO2
0.0,Ca-Mn-O,3,CaMnO2
1.8198,Ca-Mn-O,3,CaMnO2
1.0003000000000002,Ca-Mn-O,3,CaMnO2
0.8195000000000001,Ca-Mn-O,3,CaMnO2
0.9560000000000004,Ca-Mn-O,3,CaMnO2
0.0,Ca-Mn-O,3,CaMnO3
0.4685999999999999,Ca-Mn-O,3,CaMnO3
3.4785000000000004,Ca-Mn-O-P,4,CaMnP2O7
0.3333000000000004,Ca-Mn-S,3,CaMnS2
0.0,Ca-Mn-Sb,3,CaMnSb2
0.3446999999999995,Ca-Mn-Se,3,CaMnSe2
0.0,Ca-Mn-Si,3,CaMnSi
0.0,Ca-H-Mn-O-Si,5,CaMnSiHO5
2.5994,Ca-Mn-O-Si,4,CaMnSiO4
0.0,Ca-Mn-Sn,3,CaMnSn
1.3297999999999996,Ca-Mn-O-Sn-W,5,CaMnSnWO6
0.0,Ca-Cu-Mn-O-V,5,CaMnV4(CuO6)2
0.8556999999999999,Ca-Mn-O-W,4,CaMnWO6
2.7486,As-Ca-H-Mn-O-Zn,6,CaMnZnAs2H3O10
0.6623999999999999,Ca-Mo-O-P,4,CaMo2(PO5)2
1.0213,Ca-Mo-O,3,CaMo2O5
0.8702000000000005,Ca-Mo-O,3,CaMo2O5
0.9315999999999997,Ca-Mo-O,3,CaMo2O5
3.7247,Ca-Mo-O,3,CaMo2O7
1.0328999999999997,Ca-Mo-O,3,CaMo4O9
1.3548,As-Ca-Mo-O,4,CaMoAsO5
3.8249,Ca-F-Mo,3,CaMoF5
3.7032,Ca-F-Mo,3,CaMoF5
2.5031,Ca-F-Mo,3,CaMoF6
0.0,Ca-Mo-N,3,CaMoN3
0.5679000000000007,Ca-Mo-N,3,CaMoN3
0.0,Ca-Mo-O,3,CaMoO
0.0,Ca-Mo-O,3,CaMoO2
1.0948000000000002,Ca-Mo-O,3,CaMoO3
1.1315999999999995,Ca-Mo-O,3,CaMoO3
1.3335,Ca-Mo-O,3,CaMoO3
0.8881000000000001,Ca-Mo-O,3,CaMoO4
3.5007,Ca-Mo-O,3,CaMoO4
0.0,Ca-N,2,CaN
0.0,Ca-N,2,CaN2
3.2200999999999995,Ca-N,2,CaN6
3.4205,Ca-N,2,CaN6
0.0,Ca-F-Nb-O,4,CaNb(O6F)2
0.0996000000000001,Ca-Nb-O-P,4,CaNb2(PO5)2
0.0,Bi-Ca-Nb-O,4,CaNb2Bi2O9
0.0,Br-Ca-Cu-Nb-O,5,CaNb2CuBrO7
0.0,Ca-Cu-Ga-Nb-O,5,CaNb2Ga2(CuO4)3
1.2773000000000003,Ca-Nb-O,3,CaNb2O4
3.6052,Ca-Nb-O,3,CaNb2O6
2.4743,Ca-Nb-O-P,4,CaNb2P2O11
0.0,Ca-Nb-O,3,CaNb4O14
0.0,Ca-Nb-O,3,CaNb4O8
1.8048999999999995,Ca-Fe-Nb-O-Sn,5,CaNbFeSnO6
0.6147999999999998,Ca-N-Nb-O,4,CaNbNO2
0.0,Ca-Nb-O,3,CaNbO2
0.0,Ca-Nb-O,3,CaNbO3
0.0,Ca-Co-Nd-O,4,CaNd(CoO3)4
0.0047999999999999,Ca-Cu-Nd-O,4,CaNd2(CuO2)4
3.949500000000001,Be-Ca-Nd-O,4,CaNd2BeO5
1.3218000000000003,Ca-Mn-Nd-O-Ti,5,CaNd2Ti2Mn2O12
0.0,Ca-Nd,2,CaNd3
0.2911999999999999,Ca-Cr-Nd-O,4,CaNd3Cr4O16
0.0,Ca-Mn-Nd-O,4,CaNd3Mn4O12
0.0,Ca-Nd-O-Rh,4,CaNd4(RhO3)4
0.0,Ag-Ca-Nd,3,CaNdAg2
4.2799000000000005,Al-Ca-Nd-O,4,CaNdAl3O7
2.9266000000000005,Al-Ca-Nd-O,4,CaNdAlO4
0.0,Au-Ca-Nd,3,CaNdAu2
0.0,Ca-Cd-Nd,3,CaNdCd2
0.6863999999999999,Ca-Co-Nd-O,4,CaNdCoO4
0.9737,Ca-Co-Nd-O,4,CaNdCoO4
0.0,Ca-Cr-Nd-O,4,CaNdCr4O12
2.1822000000000004,Ca-Cr-Nd-O,4,CaNdCrO4
2.7047000000000003,Ca-Cr-Nd-O,4,CaNdCrO4
0.0,Ca-Cr-Nd-O,4,CaNdCrO4
0.0,Ca-Eu-Nd-O-Sb,5,CaNdEuSbO6
0.0110999999999998,Ca-Eu-Nd-O-Sb,5,CaNdEuSbO6
0.2048999999999994,Ca-Eu-Nd-O-Sb,5,CaNdEuSbO6
0.0,Ca-Fe-Nd-O,4,CaNdFeO4
2.208,Ca-Fe-Nd-O-Sn,5,CaNdFeSnO6
3.2042,Ca-Ga-Nd-O,4,CaNdGa3O7
3.231,Ca-Ga-Nd-O,4,CaNdGa3O7
3.8876,Ca-Ga-Nd-O,4,CaNdGaO4
2.0833000000000004,Ca-Fe-Hf-Nd-O,5,CaNdHfFeO6
0.0,Ca-Hf-Nd-O-Ti,5,CaNdHfTiO6
0.0,Ca-Hg-Nd,3,CaNdHg2
0.0,Ca-Mn-Nd-O,4,CaNdMn2O6
0.0,Ca-Mn-Nd-O,4,CaNdMn4O12
0.0,Ca-Nb-Nd-O,4,CaNdNb2O7
0.0,Ca-Nd-Rh,3,CaNdRh2
0.0,Ca-Nd-O-Ti,4,CaNdTi4O12
0.2373000000000003,Ca-Mn-Nd-O-Ti,5,CaNdTiMnO6
0.0,Ca-Nd-O-V,4,CaNdV4O12
0.0,Ca-Nd-Zn,3,CaNdZn2
2.4074000000000004,Ca-Cr-Nd-O-Zr,5,CaNdZrCrO6
0.0,Ca-Ni,2,CaNi
2.6157,Ca-Ge-Ni-O,4,CaNi(GeO3)2
2.8164,Ca-Ge-Ni-O,4,CaNi(GeO3)2
4.1007,Ca-Ni-O-P,4,CaNi(PO3)4
0.0,Ca-Ni,2,CaNi2
0.0,Ca-Ni-O-P,4,CaNi2(P2O7)2
0.0,Ca-Ni-O-P,4,CaNi2(PO5)2
0.0,Ca-Ni-O,3,CaNi2O5
0.0,Ca-Ni-S,3,CaNi2S5
0.0,Ca-Ni,2,CaNi3
4.0017,Ca-Ni-O-P,4,CaNi3(P2O7)2
0.0,B-Ca-Ni,3,CaNi4B
0.0,Ca-Ni-O,3,CaNi4O9
0.0,Ca-Ni,2,CaNi5
0.0,Ca-H-Ni,3,CaNi5H
2.4759,As-Ca-H-Ni-O,5,CaNiAsHO5
0.0,As-Ca-Ni-O,4,CaNiAsO5
0.0,B-Ca-N-Ni,4,CaNiBN
4.0596,B-Ca-H-Ni-O-P,6,CaNiBP2H3O10
1.0013,Bi-Ca-Ni-O,4,CaNiBiO5
1.7546,Ca-F-Ni,3,CaNiF4
4.2162,Ca-F-Ni,3,CaNiF4
2.2137,Ca-F-Ni,3,CaNiF5
0.0,Ca-F-Ni,3,CaNiF5
2.1462000000000003,Ca-F-Ni,3,CaNiF6
0.0,Ca-Ge-Ni,3,CaNiGe
0.0,Ca-Ge-Ni,3,CaNiGe2
0.0,Ca-Ge-H-Ni,4,CaNiGeH
0.0,Ca-H-Ni,3,CaNiH3
0.0,Ca-N-Ni,3,CaNiN
2.0855,Ca-Ni-O,3,CaNiO2
2.0118,Ca-Ni-O,3,CaNiO2
0.9865999999999996,Ca-Ni-O,3,CaNiO2
1.5494999999999997,Ca-Ni-O,3,CaNiO2
2.4542,Ca-Ni-O,3,CaNiO2
0.0,Ca-Ni-O,3,CaNiO3
1.2293000000000005,Ca-Ni-O,3,CaNiO3
3.1278999999999995,Ca-Ni-O-P,4,CaNiP2O7
3.5149,Ca-Ni-O-P,4,CaNiP2O7
0.0,Ca-Ni-Te,3,CaNiTe
0.0,Ca-Ni-O-W,4,CaNiWO6
0.0,Ca-Np,2,CaNp
1.4339,Ca-H-Np-O,4,CaNp(HO)9
0.4800999999999993,Ca-Np-O-P,4,CaNp(PO4)2
1.8293,Ca-O,2,CaO
2.0869,Ca-O,2,CaO
0.0,Ca-O,2,CaO
3.630100000000001,Ca-O,2,CaO
3.12,Ca-O,2,CaO
0.0,Ca-O,2,CaO10
0.0,Ca-O,2,CaO2
2.7345,Ca-O,2,CaO2
0.0,Ca-Os,2,CaOs3
0.0,Ca-N-Os,3,CaOsN2
0.0,Ca-O-Os,3,CaOsO3
0.3443000000000005,Ca-P,2,CaP
0.0,Ca-H-O-P,4,CaP(H2O3)2
0.0930999999999999,Ca-H-O-P,4,CaP(HO3)2
5.5328,Ca-H-O-P,4,CaP2(H2O3)3
5.5901,Ca-H-O-P,4,CaP2(HO)4
5.6524,Ca-H-O-P,4,CaP2(HO2)4
4.8870000000000005,Ca-H-O-P,4,CaP2(HO2)4
0.0,Ca-H-O-P,4,CaP2(HO2)4
1.8870000000000005,Ca-O-P-W,4,CaP2(WO5)2
5.706,Ca-H-O-P,4,CaP2H2O7
6.4004,Ca-H-O-P,4,CaP2H6O7
5.475099999999999,C-Ca-H-O-P,5,CaP2H8(CO3)2
0.0,Ca-H-O-P,4,CaP2HO8
0.0,Ca-O-P,3,CaP2O9
1.4447,Ca-O-P-W,4,CaP2WO7
2.0221,Ca-O-P-W,4,CaP2WO7
0.0049000000000001,Ca-P,2,CaP3
0.0,Ca-N-O-P,4,CaP3NO9
5.6369,Ca-H-O-P,4,CaP4(HO6)2
4.1792,Ca-H-N-P,4,CaP6(HN3)4
0.0,Au-Ca-P,3,CaPAu
0.0,Br-Ca-O-P,4,CaPBrO8
6.067200000000001,Ca-H-O-P,4,CaPH3O4
0.484,Ca-F-H-O-P,5,CaPH4O5F
4.978400000000001,Ca-F-H-O-P,5,CaPH4O5F
0.0,Ca-F-H-O-P,5,CaPH4O5F
5.3416,Ca-H-O-P,4,CaPH5O6
5.4321,Ca-H-O-P,4,CaPHO4
2.0004,Ca-I-O-P,4,CaPIO8
0.0,Ca-O-P,3,CaPO4
0.687,Ca-O-P,3,CaPO6
0.0,Ca-P-Pt,3,CaPPt
3.0848000000000004,Ca-P-S,3,CaPS3
0.0,Ca-Pb,2,CaPb
0.0,Ca-Pb,2,CaPb3
0.6848000000000001,Ca-Pb-Se,3,CaPb3Se4
3.4559,Ca-F-Pb,3,CaPbF6
2.8233,Ca-I-Pb,3,CaPbI4
2.6887,Ca-I-Pb,3,CaPbI4
2.6306000000000003,Ca-I-Pb,3,CaPbI4
0.9331999999999998,Ca-O-Pb,3,CaPbO3
0.7464000000000004,Ca-Pb-Se,3,CaPbSe2
0.0,Ca-Pd,2,CaPd
0.0,Ca-Pd,2,CaPd2
0.0,C-Ca-Pd,3,CaPd3C
0.0,Ca-O-Pd,3,CaPd3O4
0.0,Ca-Pd,2,CaPd5
0.0,Ca-F-Pd,3,CaPdF4
1.1613000000000002,Ca-F-Pd,3,CaPdF4
2.1062,Ca-F-Pd,3,CaPdF6
0.0,Ca-Pb-Pd,3,CaPdPb
0.0,Ca-Pm,2,CaPm3
0.0,Ag-Ca-Pm,3,CaPmAg2
0.0,Au-Ca-Pm,3,CaPmAu2
0.0,Ca-Cd-Pm,3,CaPmCd2
0.0,Ca-Hg-Pm,3,CaPmHg2
0.0,Ca-Mg-Pm,3,CaPmMg2
0.0,Ca-Pd-Pm,3,CaPmPd2
0.0,Ca-Pm-Pt,3,CaPmPt2
0.0,Ca-Pm-Rh,3,CaPmRh2
0.0,Ca-Pm-Zn,3,CaPmZn2
0.0,Ag-Ca-O-Pr,4,CaPr(AgO3)2
0.0,Bi-Ca-O-Pr,4,CaPr(BiO3)2
0.0,Ca-Co-O-Pr,4,CaPr(CoO3)2
0.0,Ca-Cu-O-Pr,4,CaPr(CuO3)2
0.0,Ca-Fe-O-Pr,4,CaPr(FeO3)2
1.1796000000000006,Ca-Mo-O-Pr,4,CaPr(MoO3)2
0.0,Ca-Ni-O-Pr,4,CaPr(NiO3)2
0.0,Ca-O-Pr-Sb,4,CaPr(SbO3)2
0.0,Ca-O-Pr-Sn,4,CaPr(SnO3)2
1.371099999999999,Ca-O-Pr-W,4,CaPr(WO3)2
3.8903,Be-Ca-O-Pr,4,CaPr2BeO5
0.3135999999999999,Ca-Mn-O-Pr,4,CaPr2Mn3O9
0.0,Ca-Pr,2,CaPr3
0.0,Ca-Co-O-Pr,4,CaPr3(CoO3)4
0.0,Ca-Fe-O-Pr,4,CaPr3(FeO3)4
0.0,Ag-Ca-Pr,3,CaPrAg2
4.2872,Al-Ca-O-Pr,4,CaPrAl3O7
0.0,Ca-Cd-Pr,3,CaPrCd2
0.6477999999999997,Ca-Co-O-Pr,4,CaPrCoO4
0.0,Ca-Cr-O-Pr,4,CaPrCr2O6
2.643,Ca-Cr-O-Pr,4,CaPrCrO4
2.6840999999999995,Ca-Cr-Hf-O-Pr,5,CaPrHfCrO6
2.0903000000000005,Ca-Fe-Hf-O-Pr,5,CaPrHfFeO6
0.0,Ca-Hg-Pr,3,CaPrHg2
1.6036000000000006,Bi-Ca-Mg-O-Pr,5,CaPrMgBiO6
0.0,Ca-Mn-O-Pr,4,CaPrMn2O6
1.0769000000000002,Ca-Mn-O-Pr-Sb,5,CaPrMnSbO6
0.0,Ca-Nb-O-Pr-V,5,CaPrNbVO6
0.0,Ca-O-Pr,3,CaPrO3
0.0,Ca-Pr-Rh,3,CaPrRh2
0.0,Ca-O-Pr-Ti,4,CaPrTi2O6
0.0,Ca-O-Pr-V,4,CaPrV2O6
0.0,Ca-Pr-Zn,3,CaPrZn2
2.4468,Ca-Cr-O-Pr-Zr,5,CaPrZrCrO6
1.9476000000000004,Ca-Fe-O-Pr-Zr,5,CaPrZrFeO6
0.0,Ca-Pt,2,CaPt2
0.0,Ca-O-Pt,3,CaPt3O4
0.0,Ca-Pt,2,CaPt5
2.643,Ca-F-Pt,3,CaPtF6
1.2953,Ca-O-Pt,3,CaPtO3
1.9818,Ca-O-Pt,3,CaPtO6
2.0301,Ca-O-Pt,3,CaPtO6
0.0,Ca-Pb-Pt,3,CaPtPb
0.0,Ca-Pu-Rh,3,CaPuRh2
0.0,Ca-Re-Si,3,CaRe2Si
0.0,Bi-Ca-Re,3,CaReBi
3.1878,Ca-Cl-H-O-Re,5,CaReH4ClO6
0.0,Ca-N-Re,3,CaReN2
1.5174,Ca-N-Re,3,CaReN3
0.0,Ca-Rh,2,CaRh2
0.0,Ca-F-Rh,3,CaRhF6
0.0,Ca-N-Rh,3,CaRhN2
0.0,Ca-O-Rh,3,CaRhO3
0.0,Ca-N-Ru,3,CaRuN2
0.0,Ca-O-Ru,3,CaRuO3
2.3819,Ca-S,2,CaS
5.9683,Ca-O-S,3,CaSO4
5.684,Ca-O-S,3,CaSO4
5.9508,Ca-O-S,3,CaSO4
5.674,Ca-O-S,3,CaSO4
5.964899999999999,Ca-O-S,3,CaSO4
0.287,Ca-O-S,3,CaSO6
0.1810999999999999,Ca-O-S,3,CaSO6
0.7654,Ca-O-S,3,CaSO6
0.0,Ca-Sb,2,CaSb2
0.0,Ca-O-P-Sb,4,CaSb2(PO5)2
0.0,Ca-O-Sb,3,CaSb2O5