eg,chemsys,nelements,formula
0.0,Ag-La-O-S,4,La2AgS2O
0.0,Ag-La-Sn,3,La2AgSn
0.0,Al-B-La-Os,4,La2Al(BOs)2
0.0,Al-H-La-Ni,4,La2Al(Ni3H4)3
0.0,Al-Ge-La,3,La2Al2Ge
0.0,Al-I-La,3,La2Al2I
0.0,Al-Cu-La,3,La2Al3Cu7
0.0,Al-Ga-La-Pd,4,La2Al3GaPd4
0.0,Al-Ge-La,3,La2Al3Ge
0.0,Al-Ge-La,3,La2Al3Ge4
0.0,Al-La-Sn,3,La2Al3Sn
3.7106,Al-La-O,3,La2Al4O9
0.0,Al-Au-Cu-La,4,La2Al6CuAu
0.0,Al-Cu-La,3,La2Al7Cu
0.0,Al-La-Ni,3,La2Al7Ni
0.0,Al-Ge-La,3,La2AlGe
0.0,Al-Ge-La,3,La2AlGe3
0.0,Al-La-Ni,3,La2AlNi9
0.0,Al-H-La-Ni,4,La2AlNi9H
0.0,Al-H-La-Ni,4,La2AlNi9H2
0.0,Al-La-Zn,3,La2AlZn
0.0,As-I-La,3,La2AsI2
0.0,Au-La,2,La2Au
0.0,Au-La-O,3,La2AuO4
0.0,B-Br-La,3,La2B3Br
0.0,B-Cl-La,3,La2B3Cl
4.491899999999999,B-La-O,3,La2B4O9
0.0,B-La-Rh,3,La2B4Rh5
4.385699999999999,B-La-O,3,La2B8O15
3.8664,Be-Ge-La-O,4,La2Be2GeO7
3.9238,Be-La-O,3,La2Be2O5
3.7895,Be-Ga-La-O,4,La2BeGa2O7
0.0,Bi-La,2,La2Bi
0.0,Bi-La-O,3,La2Bi2O7
0.0,Bi-F-La-O-S,5,La2Bi2S4OF
1.5099,Bi-La-O,3,La2Bi4O9
0.0,Bi-La-N,3,La2BiN
0.0,Bi-La-O,3,La2BiO2
0.8297999999999996,Bi-La-O,3,La2BiO5
0.0,Br-La-O,3,La2Br2O
0.2984,Br-La,2,La2Br5
3.865100000000001,Br-Cl-La-O,4,La2BrClO2
1.9623000000000008,C-La-N-O,4,La2C(NO)2
0.0,C-Cl-La,3,La2C2Cl
3.0946000000000007,C-La-N-O,4,La2C2N4O
0.0,C-La,2,La2C3
0.0,C-Cl-La,3,La2CCl
1.8792,C-Cl-La-N,4,La2CN3Cl
4.012099999999999,C-La-O,3,La2CO5
1.9843,Cd-La-O-Se,4,La2Cd(SeO)2
0.0,As-Cd-La-O,4,La2CdAs2O
0.0,Au-Cd-La,3,La2CdAu2
0.0,Cd-Hg-La,3,La2CdHg
0.0,Cd-In-La,3,La2CdIn
0.0,Cd-La-Ni,3,La2CdNi2
0.0,Cd-La-O-P,4,La2CdP2O
0.0,Cd-La-Pd,3,La2CdPd2
0.0,Cd-La-Rh,3,La2CdRh2
1.7847999999999995,Cd-La-S,3,La2CdS4
1.0990000000000002,Cd-La-Se,3,La2CdSe4
0.5282,Cd-La-Te,3,La2CdTe4
2.1894,Ce-La-O,3,La2Ce2O7
0.0,Ce-La-S,3,La2CeS4
0.0,Ce-La-Te,3,La2CeTe4
0.0,Co-I-La,3,La2Co2I
0.0,Co-La-O,3,La2Co2O5
0.0,Co-La-O-Se,4,La2Co2Se2O3
0.0,Co-La-Si,3,La2Co2Si
0.0,Co-La,2,La2Co3
0.0,Co-La,2,La2Co7
0.0,Co-Ir-La-O,4,La2CoIrO6
0.9971999999999994,Co-La-Ni-O,4,La2CoNiO6
0.0390000000000005,Co-La-Ni-O,4,La2CoNiO6
0.3608000000000002,Co-La-O,3,La2CoO4
0.0,Co-La-O,3,La2CoO4
0.0,Co-La-O-Ru,4,La2CoRuO6
0.0,Co-La-Sb,3,La2CoSb4
0.0,Co-La-Si,3,La2CoSi3
0.0,Co-La-O-Si,4,La2CoSiO2
0.0,Co-La-Sn,3,La2CoSn4
0.0,Cr-La-O,3,La2Cr2O5
0.3097000000000003,Cr-Fe-La-O,4,La2CrFeO6
0.0,Cr-La-Mo-O,4,La2CrMoO6
0.8387000000000002,Cr-La-O,3,La2CrO6
1.918,Cr-La-O,3,La2CrO6
0.0,Cu-F-La-N,4,La2Cu(NF)2
0.0,Cu-I-La,3,La2Cu2I
0.0,Cu-La-O,3,La2Cu2O5
1.6117000000000008,Cu-La-O-S-Se,5,La2Cu2SeSO2
0.0,Cu-La-Ni,3,La2Cu3Ni
0.0,Cu-Ge-La,3,La2CuGe6
0.0,Cu-Ir-La,3,La2CuIr
0.0,Cu-Ir-La-O,4,La2CuIrO6
0.0,Cu-La-O,3,La2CuO4
0.0,Cu-La-O-Rh,4,La2CuRhO6
0.0,Cu-La-Ru,3,La2CuRu
0.0,Cu-La-O-S,4,La2CuS2O
0.0,Cu-La-S,3,La2CuS4
1.4409999999999998,Cu-La-S-Sb,4,La2CuSbS5
0.0,Cu-La-O-Se,4,La2CuSe2O
0.0,Cu-La-Si,3,La2CuSi3
0.0,Cu-La-Sn,3,La2CuSn4
0.0,Cu-La-O-Te,4,La2CuTe2O
0.7102999999999993,Cu-La-Te,3,La2CuTe4
0.0,Eu-La-O,3,La2EuO4
0.4706999999999999,Eu-La-S,3,La2EuS4
1.1414,Fe-La-O-Se,4,La2Fe(SeO)2
0.0,Fe-I-La,3,La2Fe2I
0.0,Fe-La-O,3,La2Fe2O5
1.2609999999999992,Fe-La-O,3,La2Fe2O5
0.0,Fe-La-O-S,4,La2Fe2S2O3
0.0,Fe-La-S,3,La2Fe2S5
0.0,Fe-La-O-Se,4,La2Fe2Se2O3
0.0,C-Fe-La-Si,4,La2Fe2Si2C
0.0,Fe-La-Sb,3,La2Fe4Sb5
0.0,As-Fe-La-O,4,La2FeAs2O
0.0,As-Fe-La-O-Ru,5,La2FeAs2RuO2
0.0,Co-Fe-La-O,4,La2FeCoO6
0.0,Fe-La-Ni-O,4,La2FeNiO6
0.0,Fe-La-O-P,4,La2FeP2O
0.0,Fe-La-Si,3,La2FeSi3
0.0,Fe-La-Sn,3,La2FeSn4
0.0,Ga-La-Ni,3,La2Ga10Ni
2.698,Ga-La-O,3,La2Ga4O9
0.0,Au-Ga-La,3,La2Ga5Au3
0.0,Cu-Ga-La,3,La2Ga5Cu3
0.0,Au-Ga-La,3,La2Ga7Au
0.0,Co-Ga-La,3,La2Ga7Co
0.0,Ag-Ga-La,3,La2GaAg
1.7713,Co-Ga-La-O,4,La2GaCoO6
0.0,Co-Ga-La-O,4,La2GaCoO6
2.307899999999999,Fe-Ga-La-O,4,La2GaFeO6
1.8032000000000004,Ga-La-N,3,La2GaN3
0.0,Ga-La-Ni-O,4,La2GaNiO6
0.6707999999999998,Ga-La-Ni-O,4,La2GaNiO6
3.7144,Ge-La-O,3,La2Ge2O7
0.0,Ge-La,2,La2Ge3
0.0,Ge-Ir-La-Pd,4,La2Ge4IrPd3
0.0,Ge-Ir-La-Rh,4,La2Ge4IrRh3
0.0,Ge-La-Pd-Pt,4,La2Ge4Pd3Pt
0.0,Ge-Ir-La,3,La2Ge5Ir3
0.0,Ge-La-Rh,3,La2Ge5Rh3
0.0,Ge-La-Ru,3,La2Ge5Ru3
0.3522999999999996,Ge-I-La,3,La2GeI2
0.3859000000000003,Ge-I-La,3,La2GeI2
4.021000000000001,Ge-La-O,3,La2GeO5
0.0,H-La,2,La2H5
4.232799999999999,Hf-La-O,3,La2Hf2O7
0.0,Hf-La-O,3,La2Hf2O7
2.043399999999999,Hf-La-Ni-O,4,La2HfNiO6
4.1968,Hf-La-O,3,La2HfO5
3.7213,Hf-La-O,3,La2HfO5
2.0195000000000003,Hg-La-O,3,La2HgO4
0.0,I-La-O,3,La2I2O
0.0,In-La,2,La2In
0.0,In-La-Ni,3,La2In11Ni15
0.0,Ag-In-La,3,La2InAg
0.0,Cu-In-La,3,La2InCu2
0.0,Ge-In-La,3,La2InGe2
0.0,In-La-Ni,3,La2InNi2
0.0,In-La-Pd,3,La2InPd2
0.0,In-La-Rh,3,La2InRh2
0.0,Ir-La,2,La2Ir7
0.0,Au-Ir-La,3,La2IrAu
0.0,Ir-La-Pd,3,La2IrPd
0.0,La-Mg,2,La2Mg
1.9267000000000003,Co-La-Mg-O,4,La2Mg(CoO3)2
1.4698000000000002,Co-La-Mg-O,4,La2Mg(CoO3)2
0.0,Cu-La-Mg-O,4,La2Mg(CuO2)4
0.1592000000000002,Cu-La-Mg-O,4,La2Mg(CuO3)2
2.4252,Fe-La-Mg-O,4,La2Mg(FeO3)2
2.9957000000000003,Fe-La-Mg-O,4,La2Mg(FeO3)2
2.3189,La-Mg-Ni-O,4,La2Mg(NiO3)2
2.4303,La-Mg-Ni-O,4,La2Mg(NiO3)2
0.0,Al-La-Mg,3,La2MgAl
0.0,Al-La-Mg,3,La2MgAl3
0.0,Bi-La-Mg-O,4,La2MgBiO6
0.0,Cd-La-Mg,3,La2MgCd
0.9261999999999996,Co-La-Mg-O-Pb-Sb,6,La2MgCo2Sb2(PbO6)2
0.8036000000000003,Co-La-Mg-O-Pb-Sb,6,La2MgCo2Sb2(PbO6)2
1.7999999999999998,Co-La-Mg-O-Pb-Sb,6,La2MgCo2Sb2(PbO6)2
0.6623000000000001,Co-La-Mg-O-Pb-Sb,6,La2MgCo2Sb2(PbO6)2
1.6504000000000003,Co-La-Mg-O-Pb-Sb,6,La2MgCo2Sb2(PbO6)2
0.2728999999999999,Co-La-Mg-O,4,La2MgCoO6
0.4194,Co-Cr-La-Mg-O,5,La2MgCr2(CoO6)2
1.1380999999999997,Cr-La-Mg-O,4,La2MgCrO6
0.0,Cu-La-Mg,3,La2MgCu2
0.0,Cu-La-Mg-O,4,La2MgCuO4
1.0145,Fe-La-Mg-Mo-O,5,La2MgFe2(MoO6)2
1.7305,Fe-La-Mg-O-Te,5,La2MgFe2(TeO6)2
1.3233000000000006,Fe-La-Mg-O-Te,5,La2MgFe2(TeO6)2
1.5511000000000008,Fe-La-Mg-O-Te,5,La2MgFe2(TeO6)2
1.4769999999999994,Fe-La-Mg-O-Te,5,La2MgFe2(TeO6)2
1.4960000000000004,Fe-La-Mg-O-W,5,La2MgFe2(WO6)2
1.0793,Fe-La-Mg-O-W,5,La2MgFe2(WO6)2
0.5422000000000002,Fe-La-Mg-O,4,La2MgFeO6
0.0,Fe-La-Mg-O,4,La2MgFeO6
0.4232999999999993,Ge-La-Mg-O,4,La2MgGeO6
0.0,Ir-La-Mg-O,4,La2MgIrO6
1.715,La-Mg-Mn-O,4,La2MgMnO6
2.1156,La-Mg-Mn-O-Zn,5,La2MgMnZnO6
1.7863999999999995,La-Mg-Mn-O-Zn,5,La2MgMnZnO6
1.4558999999999995,La-Mg-Mo-O,4,La2MgMoO6
1.9001,La-Mg-Mo-O,4,La2MgMoO6
1.5021000000000004,La-Mg-Mo-O,4,La2MgMoO6
1.9261,La-Mg-Mo-O,4,La2MgMoO6
1.2267,La-Mg-Mo-O,4,La2MgMoO6
0.0,La-Mg-Nb-O,4,La2MgNbO6
0.2118000000000002,La-Mg-Nb-O,4,La2MgNbO6
0.0,La-Mg-Ni,3,La2MgNi2
0.0,La-Mg-Ni,3,La2MgNi9
1.3640999999999996,La-Mg-Ni-O,4,La2MgNiO6
2.4898,La-Mg-O,3,La2MgO4
3.112499999999999,La-Mg-O,3,La2MgO4
0.0,La-Mg-O-Rh,4,La2MgRhO6
2.1744000000000003,La-Mg-S,3,La2MgS4
1.7443,La-Mg-S,3,La2MgS4
0.0,La-Mg-O-Sb,4,La2MgSbO6
1.8169000000000004,La-Mg-Se,3,La2MgSe4
1.3291,La-Mg-Se,3,La2MgSe4
0.0,La-Mg-Si,3,La2MgSi2
3.852900000000001,La-Mg-O-Sn,4,La2MgSnO6
4.003500000000001,La-Mg-O-Sn,4,La2MgSnO6
0.2167000000000003,Ag-La-Mg-O-Ti,5,La2MgTi2(AgO4)2
0.0,Ag-La-Mg-O-Ti,5,La2MgTi2(AgO4)2
0.0,Ag-La-Mg-O-Ti,5,La2MgTi3(AgO5)2
0.0398999999999993,Co-La-Mg-O-Ti,5,La2MgTiCoO6
0.0067000000000003,La-Mg-Ni-O-Ti,5,La2MgTiNiO6
3.0942000000000007,La-Mg-O-Ti,4,La2MgTiO6
3.0794000000000006,La-Mg-O-Ti,4,La2MgTiO6
1.6891999999999996,La-Mg-O-Ti-Zn,5,La2MgTiZnO6
0.8964000000000008,La-Mg-O-Ti-Zn,5,La2MgTiZnO6
1.3390999999999993,La-Mg-O-Ti-Zn,5,La2MgTiZnO6
0.0,La-Mg-Tl,3,La2MgTl
1.0179,La-Mg-O-V,4,La2MgV2O8
1.7410999999999994,La-Mg-O-V,4,La2MgV2O8
1.7390999999999996,La-Mg-O-V,4,La2MgVO6
1.1212,La-Mg-O-V-Zn,5,La2MgVZnO6
2.215399999999999,La-Mg-O-W,4,La2MgWO6
0.3618000000000005,Bi-La-Mg-O-Zn,5,La2MgZnBiO6
2.3526,Co-La-Mg-O-Zn,5,La2MgZnCoO6
0.0216000000000002,La-Mg-Mo-O-Zn,5,La2MgZnMoO6
0.0,La-Mg-Mo-O-Zn,5,La2MgZnMoO6
0.5804,La-Mg-Mo-O-Zn,5,La2MgZnMoO6
3.0029999999999992,La-Mg-Ni-O-Zn,5,La2MgZnNiO6
0.1955999999999997,La-Mg-O-Sb-Zn,5,La2MgZnSbO6
0.4568000000000003,La-Mg-O-Sb-Zn,5,La2MgZnSbO6
0.0,La-Mg-O-Sb-Zn,5,La2MgZnSbO6
1.8306,La-Mg-O-Zr,4,La2MgZr2O8
2.964700000000001,La-Mg-O-Zr,4,La2MgZrO6
0.0,C-La-Mn,3,La2Mn17C2
0.0461,La-Mn-O,3,La2Mn2O5
0.6197999999999997,La-Mn-O-Se,4,La2Mn2Se2O3
0.0,As-Cu-La-Mn,4,La2Mn3Cu9As7
0.0,Cu-La-Mn-P,4,La2Mn3Cu9P7
0.0,Cu-Ge-La-Mn,4,La2Mn3CuGe4
0.0,Fe-La-Mn-Si,4,La2Mn3FeSi4
0.0,La-Mn-O-Pb,4,La2Mn3PbO9
0.0,Co-La-Mn-O,4,La2MnCoO6
0.7623999999999995,Cr-La-Mn-O,4,La2MnCrO6
0.9733,Cr-La-Mn-O,4,La2MnCrO6
1.516,Fe-La-Mn-O-Se,5,La2MnFeSe2O3
1.5555000000000003,Ga-La-Mn-O,4,La2MnGaO6
1.2796999999999992,La-Mn-Ni-O,4,La2MnNiO6
0.0,La-Mn-Ni-O,4,La2MnNiO6
1.5804999999999998,La-Mn-Ni-O,4,La2MnNiO6
0.0,La-Mn-O-P,4,La2MnP2O
0.0,La-Mn-O-Pb,4,La2MnPbO9
0.0,La-Mn-O-Ru,4,La2MnRuO6
0.0,La-Mn-Sb,3,La2MnSb4
0.0,La-Mn-O-V,4,La2MnVO6
1.5789,La-Mn-O-Zn,4,La2MnZnO6
0.0,La-Mo-O,3,La2Mo2O7
2.8513,La-Mo-O,3,La2Mo2O9
0.5754000000000001,La-Mo-O,3,La2MoO5
2.705,La-Mo-O,3,La2MoO6
2.2858,La-Mo-O,3,La2MoO6
3.5993,La-Mo-O,3,La2MoO6
3.4216,Cl-La-N,3,La2NCl3
1.8866,La-N-Nb-O,4,La2Nb2N2O5
1.4554999999999998,La-N-Nb-O,4,La2Nb2N2O5
1.4008000000000005,La-N-Nb-O,4,La2Nb2N2O5
0.0,Cl-Cu-La-Nb-O,5,La2Nb4Cu(ClO7)2
0.0,Cr-La-Nb-O,4,La2NbCrO6
0.2076000000000011,La-Nb-Ni-O,4,La2NbNiO6
0.0,La-Mn-Nd-Si,4,La2Nd(MnSi)6
0.0,La-Ni-P,3,La2Ni12P5
0.0,I-La-Ni,3,La2Ni2I
0.5829999999999993,La-Ni-O,3,La2Ni2O5
1.7262000000000004,La-Ni-O,3,La2Ni2O5
2.4036,La-Ni-O,3,La2Ni2O5
0.0,La-Ni,2,La2Ni3
0.0,Ge-La-Ni-P,4,La2Ni4Ge3P
0.0,Ge-La-Ni-P,4,La2Ni4GeP3
0.0,B-La-Ni,3,La2Ni5B4
0.0,C-La-Ni,3,La2Ni5C3
0.0,La-Ni,2,La2Ni7
0.0,As-La-Ni-O,4,La2NiAs2O
0.0,La-Mo-Ni-O,4,La2NiMoO6
2.6467,F-La-Ni-O,4,La2NiO3F2
0.0,La-Ni-O,3,La2NiO4
1.9125,La-Ni-O,3,La2NiO4
0.0,La-Ni-O-P,4,La2NiP2O
0.0,La-Ni-Pt,3,La2NiPt
0.0,La-Ni-O-Ru,4,La2NiRuO6
0.0,La-Ni-Sn,3,La2NiSn4
0.0,La-Ni-O-W,4,La2NiWO6
1.6943000000000006,La-O,2,La2O3
3.8248,La-O,2,La2O3
0.3996000000000004,La-O,2,La2O3
1.5342000000000002,La-O,2,La2O3
3.4110000000000005,La-O,2,La2O3
0.0,I-La-Os,3,La2Os2I
0.0,Au-La-O-P,4,La2P2AuO
0.0,Br-La-P,3,La2PBr2
0.0,I-La-P,3,La2PI2
5.3332,F-La-Pb,3,La2PbF8
2.1549,La-Pb-S,3,La2PbS4
1.8284,La-Pb-Se,3,La2PbSe4
0.0,F-La-O-Pd,4,La2Pd(OF)2
1.1790000000000005,La-O-Pd,3,La2Pd2O5
0.0,La-Pb-Pd,3,La2Pd2Pb
0.0,La-O-Pd,3,La2PdO4
0.0,La-Pd-Ru,3,La2PdRu
0.0,La-O-Pr,3,La2Pr2O7
0.9644000000000004,La-O-Pt,3,La2Pt2O7
0.0,C-La-Re-Si,4,La2Re2Si2C
0.2825999999999986,La-Ni-O-Re,4,La2ReNiO6
1.0168,La-O-Re,3,La2ReO5
0.0,I-La-Rh,3,La2Rh2I
0.0,La-Rh,2,La2Rh7
0.0,I-La-Ru,3,La2Ru2I
0.0,Au-La-Ru,3,La2RuAu
0.0,La-O-Ru,3,La2RuO5
0.0,F-La-S,3,La2S2F
2.1692,La-O-S,3,La2S2O
2.4295,La-O-S,3,La2S2O
3.064000000000001,La-O-S,3,La2SO2
4.688,La-O-S,3,La2SO6
0.0,La-Sb,2,La2Sb
0.0,Au-La-Sb,3,La2SbAu3
0.0,I-La-Sb,3,La2SbI2
0.0,La-O-Sb,3,La2SbO2
0.0,La-O-Sb,3,La2SbO6
0.051400000000001,La-O-Sc,3,La2Sc2O5
0.0,La-Sc-Si,3,La2ScSi2
2.0543000000000005,La-O-Se,3,La2Se2O
2.4067,La-O-Se,3,La2SeO2
0.0,La-O-Si,3,La2Si2O5
0.0,La-Si,2,La2Si3
0.0,La-Ni-Si,3,La2Si3Ni
0.0,La-Rh-Si,3,La2Si3Rh
0.0,La-Rh-Si,3,La2Si5Rh3
4.4804,La-O-Si,3,La2SiO5
4.3313,La-O-Si,3,La2SiO5
0.0,La-S-Sm,3,La2SmS4
2.6644999999999994,La-O-Sn,3,La2Sn2O7
0.0,Ir-La-Sn,3,La2Sn4Ir
0.0,La-Ru-Sn,3,La2Sn4Ru
0.0,La-Sn,2,La2Sn5
0.0,La-Rh-Sn,3,La2Sn5Rh3
0.0,Hg-La-Sn,3,La2SnHg
0.0,La-S-Sn,3,La2SnS5
0.0,La-Sb-Sn,3,La2SnSb4
0.2052,La-O-Ta,3,La2Ta2O9
0.2156000000000002,La-O-Ta,3,La2Ta2O9
0.0,La-O-Tb,3,La2Tb2O7
0.0,La-Ni-O-Tc,4,La2TcNiO6
1.2492,La-Pb-Te,3,La2Te4Pb
0.0,La-Te,2,La2Te5
0.0,I-La-Te,3,La2TeI2
2.0287,La-O-Te,3,La2TeO2
3.454399999999999,La-O-Te,3,La2TeO6
2.6619,La-O-Th,3,La2Th2O7
3.0777,La-O-Th,3,La2Th3O9
2.8814,La-O-Th,3,La2Th5O13
2.7461,La-O-Th,3,La2Th8O19
3.497399999999999,La-O-Th,3,La2Th8O19
4.0531,Cl-La-O-Ta-Th,5,La2ThTa(ClO2)3
0.0,Cu-La-O-Ti,4,La2Ti2CuO8
0.0,La-O-Ti,3,La2Ti2O5
2.746600000000001,La-O-Ti,3,La2Ti2O7
2.9171000000000005,La-O-Ti,3,La2Ti2O7
2.6015000000000006,La-O-Si-Ti,4,La2Ti2SiO9
2.2095,La-O-Ti-Zn,4,La2Ti2ZnO8
1.9408000000000003,Ag-La-O-Ti,4,La2Ti3(AgO5)2
2.0874000000000006,Bi-La-O-Ti,4,La2Ti3(BiO6)2
2.1281,Bi-La-O-Ti,4,La2Ti3(BiO6)2
0.0,Ag-La-O-Ti,4,La2Ti3AgO9
1.4916,Co-La-O-Ti,4,La2Ti3CoO10
0.0,Cu-La-O-Ti,4,La2Ti3CuO10
0.0,La-Ni-O-Ti,4,La2Ti3NiO10
0.0,La-O-Ti,3,La2Ti3O9
2.0596,La-O-Ti,3,La2Ti3O9
1.9872,La-O-Ti,3,La2Ti3O9
2.5051,La-O-Ti,3,La2Ti3O9
3.781,La-O-Ti,3,La2Ti3O9
2.7657000000000003,La-O-Ti,3,La2Ti3O9
2.0054,La-O-Ti,3,La2Ti3O9
0.0,La-O-Ti-V,4,La2Ti3VO10
1.7776999999999994,La-O-Ti-Zn,4,La2Ti3ZnO10
0.0,Co-La-Ti,3,La2TiCo16
0.0,Co-La-O-Ti,4,La2TiCoO6
0.0,Cr-La-O-Ti,4,La2TiCrO6
0.0,Cu-La-O-Ti,4,La2TiCuO6
0.0,La-Ni-O-Ti,4,La2TiNiO6
2.8034,La-Ni-O-Ti,4,La2TiNiO6
3.2886,La-O-Ti,3,La2TiO5
3.0304,La-O-Ti-Zn,4,La2TiZnO6
2.9018,La-O-Ti-Zn,4,La2TiZnO6
0.0,Ag-La-Tl,3,La2TlAg
0.0,Cd-La-Tl,3,La2TlCd
0.0,Hg-La-Tl,3,La2TlHg
0.0,In-La-Tl,3,La2TlIn
0.0,La-Tl-Zn,3,La2TlZn
0.0,La-O-U,3,La2U3O11
0.0,As-La-U,3,La2UAs3
1.4113999999999995,La-O-U,3,La2UO6
0.0,La-Se-U,3,La2USe4
0.0,La-Te-U,3,La2UTe4
0.0,Co-La-V,3,La2VCo16
0.0,Fe-La-O-V,4,La2VFeO6
0.1083000000000007,Fe-La-O-V,4,La2VFeO6
0.0,La-O-Re-V,4,La2VReO6
1.7017999999999995,La-O-V-Zn,4,La2VZnO6
3.4184,La-O-W,3,La2W2O9
3.5579,La-O-W,3,La2WO6
0.0,C-La-Y,3,La2YC6
0.0,La-Zn,2,La2Zn17
0.0,La-Pb-Zn,3,La2Zn5Pb
0.0,La-Sn-Zn,3,La2Zn5Sn
0.0,Ag-La-Zn,3,La2ZnAg
0.0,As-La-O-Zn,4,La2ZnAs2O
0.0,As-La-Zn,3,La2ZnAs4
0.0,Bi-La-Zn,3,La2ZnBi4
0.0,Bi-La-O-Zn,4,La2ZnBiO6
0.0,Co-La-O-Zn,4,La2ZnCoO6
0.5781999999999998,Co-La-O-Zn,4,La2ZnCoO6
0.9615,Cr-La-O-Zn,4,La2ZnCrO6
0.0,Fe-La-O-Zn,4,La2ZnFeO6
0.0,Ga-La-Zn,3,La2ZnGa
0.0,Hg-La-Zn,3,La2ZnHg
0.0,Ir-La-Zn,3,La2ZnIr
0.0,Ir-La-O-Zn,4,La2ZnIrO6
1.5064000000000002,La-Mo-O-Zn,4,La2ZnMoO6
0.0,La-Ni-Zn,3,La2ZnNi2
1.0987999999999998,La-Ni-O-Zn,4,La2ZnNiO6
3.033,La-O-Zn,3,La2ZnO4
0.0,La-O-P-Zn,4,La2ZnP2O
0.0,La-O-Rh-Zn,4,La2ZnRhO6
0.0,La-Ru-Zn,3,La2ZnRu
0.0,La-Sb-Zn,3,La2ZnSb4
0.0,La-O-Sb-Zn,4,La2ZnSbO6
2.9267000000000003,La-O-Sn-Zn,4,La2ZnSnO6
2.117,La-O-W-Zn,4,La2ZnWO6
3.7346,La-O-Zr,3,La2Zr2O7
0.0643999999999991,La-O-Zr,3,La2Zr2O7
2.2255000000000003,La-O-Zr,3,La2Zr2O7
1.9201000000000008,La-Ni-O-Zr,4,La2ZrNiO6
0.0,Ag-La-Sn,3,La3(AgSn)4
0.0,Al-La-Si,3,La3(Al2Si3)2
0.0,Al-I-La,3,La3(AlI)2
0.0,B-La-Ru,3,La3(B3Ru4)2
0.0,B-La-N,3,La3(BN2)2
0.0,Cr-La-N,3,La3(CrN3)2
0.0,Ga-La-Ni,3,La3(GaNi2)2
0.0,Ge-La-Pd,3,La3(GePd)4
0.0,Ge-La-Rh,3,La3(GeRh)4
1.4882,La-Mo-O,3,La3(MoO5)2
0.0,La-N-Nb,3,La3(NbN3)2
0.0,La-Ni-O,3,La3(NiO3)2
0.0,La-O-Os,3,La3(OsO5)2
0.0,La-P-Pd,3,La3(P3Pd10)2
0.0,La-O-Re,3,La3(ReO5)2
0.0,La-Pd-Si,3,La3(Si3Pd10)2
0.0,La-Ni-Si,3,La3(SiNi)4
0.0,La-Pd-Si,3,La3(SiPd)4
0.0,La-N-Ta,3,La3(TaN3)2
0.0,La-N-V,3,La3(VN3)2
0.0,La-Pd-Zn,3,La3(ZnPd)4
0.0,La-Pt-Zn,3,La3(ZnPt)4
0.0,Ag-La,2,La3Ag
0.0,Al-La,2,La3Al
0.0,Al-Fe-La-O,4,La3Al(FeO3)4
0.0,Al-La,2,La3Al11
3.6378,Al-Ga-La-O-Sn,5,La3Al2Ga3SnO14
0.0,Al-C-La,3,La3AlC
0.0,Al-La-N,3,La3AlN
0.0,Al-La-O,3,La3AlO
4.2016,Al-La-O,3,La3AlO6
0.0,B-C-Cl-La,4,La3BCCl3
3.7948,B-La-O-W,4,La3BWO9
0.0,Br-La,2,La3Br
0.0,Cd-La,2,La3Cd
0.0,Cd-Fe-La-O,4,La3Cd(FeO3)4
0.0,Ce-La,2,La3Ce
0.0,Ce-La-O,3,La3Ce4O12
0.0,Cl-La,2,La3Cl
0.0,Co-La,2,La3Co
0.0449999999999999,Co-Cu-La-O,4,La3Co2CuO9
0.0,Co-La-Sn,3,La3Co2Sn7
0.0,Co-La-O,3,La3Co3O8
1.1312000000000006,Co-La-O-S-W,5,La3CoW(SO2)3
0.0,Cr-La-O-S-W,5,La3CrW(SO2)3
0.2826000000000004,Cu-La-Sb,3,La3Cu3Sb4
0.0,As-Cu-La-O,4,La3Cu4(As2O)2
0.0,Cu-La-O-P,4,La3Cu4(P2O)2
0.0,Dy-La,2,La3Dy
0.0,C-Dy-La,3,La3DyC8
0.0,Er-La,2,La3Er
0.0,Eu-La,2,La3Eu
0.0,Ag-Fe-La-O,4,La3Fe4AgO12
2.0848000000000004,Fe-La-O,3,La3FeO6
0.0,Fe-La-O-S-W,5,La3FeW(SO2)3
0.0,Ga-La,2,La3Ga
0.0,Cl-Ga-La,3,La3Ga4Cl
3.6931,Ga-La-O-Si,4,La3Ga5SiO14
3.3113999999999995,Ga-La-O-Sn,4,La3Ga5SnO14
0.0,Br-Ga-La,3,La3GaBr3
3.8351000000000006,Ga-La-O,3,La3GaO6
2.5314,Br-Gd-La-O,4,La3Gd(BrO)4
3.1135,Cl-Gd-La-O,4,La3Gd(ClO)4
0.0,Br-Ge-La,3,La3Ge3Br2
0.0,Cl-Ge-La,3,La3Ge3Cl2
0.0,Ge-La,2,La3Ge5
0.0,Hf-La,2,La3Hf
3.7231,Ga-Hf-La-O,4,La3HfGa5O14
0.0,Hg-La,2,La3Hg
0.0,Ho-La,2,La3Ho
0.0,In-La,2,La3In
0.0,Ge-In-La,3,La3In4Ge
0.0,B-In-La,3,La3InB
0.0,C-In-La,3,La3InC
0.0,In-La-N,3,La3InN
0.0,In-La-Pb,3,La3InPb4
0.0,Ir-La,2,La3Ir2
0.0,Ir-La-O,3,La3IrO7
0.0,La-Lu,2,La3Lu
0.0,La-Mg,2,La3Mg
0.0,La-Mg-O-W,4,La3Mg2(WO6)2
0.9700000000000002,Cr-La-Mg-S,4,La3Mg2CrS8
0.0,La-Mg-Mn-S,4,La3Mg2MnS8
0.4981999999999997,La-Mg-Mo-S,4,La3Mg2MoS8
3.086899999999999,La-Mg-Nb-O,4,La3Mg2NbO9
0.1042999999999994,La-Mg-S-Ti,4,La3Mg2TiS8
0.0,La-Mg-S-V,4,La3Mg2VS8
0.1029999999999997,La-Mg-S-W,4,La3Mg2WS8
0.0,Cu-La-Mg-O-P,5,La3MgCu4(P2O)2
0.0,La-Mg-N-O-Ti,5,La3MgTi2N3O4
0.0,Cr-La-Mg-O-Ti,5,La3MgTi3CrO12
0.0,La-Mg-O-Ti,4,La3MgTi4O12
0.0,Ag-La-Mn-O,4,La3Mn4AgO12
1.098,Bi-La-Mn-O,4,La3Mn8BiO20
0.0,La-Mn-O,3,La3MnO7
0.0,La-Mn-S,3,La3MnS5
0.3421000000000003,La-Mn-O-S-W,5,La3MnW(SO2)3
0.0,La-Mn-O-S-W,5,La3MnW(SO2)3
0.0,La-Nb,2,La3Nb
0.0,Cl-La-Nb-O,4,La3Nb(ClO2)3
0.0,Ga-La-Nb-O,4,La3NbGa5O14
2.7255000000000003,La-Nb-O,3,La3NbO7
0.0,La-Nd,2,La3Nd
0.0,Cu-La-Nd-O,4,La3Nd(CuO4)2
3.4201000000000006,Ga-La-Nd-O,4,La3Nd(GaO3)4
3.454,Ga-La-Nd-O,4,La3Nd(GaO3)4
2.411200000000001,Cr-La-Nd-O,4,La3NdCr4O12
0.0,La-Mn-Nd-O,4,La3NdMn4O12
3.7214,La-Nd-O-Zr,4,La3NdZr4O14
0.0,La-Ni,2,La3Ni
0.0,B-La-Ni,3,La3Ni13B2
0.0,B-La-N-Ni,4,La3Ni2B2N3
0.0,La-Ni-O,3,La3Ni2O7
0.0,La-Ni-Sn,3,La3Ni2Sn7
0.0,Bi-La-Ni,3,La3Ni3Bi4
0.0,La-Ni-O-P,4,La3Ni4(P2O)2
0.0,La-Ni-O-S-W,5,La3NiW(SO2)3
3.5752000000000006,F-La-O,3,La3O2F5
0.0,La-O-Os,3,La3OsO7
0.0,La-Pb,2,La3Pb
0.0,C-La-Pb,3,La3PbC
0.0,La-Pd,2,La3Pd4
0.0,La-Pm,2,La3Pm
0.0,Co-La-P-Pr,4,La3Pr(CoP)8
0.0,La-Mn-O-Pr,4,La3PrMn4O12
0.0,La-Pt,2,La3Pt2
0.0,La-Pt,2,La3Pt4
0.6280000000000001,Cl-La-O-Re,4,La3Re(ClO2)3
0.0,La-O-Re,3,La3Re2O9
1.5225999999999995,La-O-Re,3,La3ReO8
1.8714000000000004,La-O-Re,3,La3ReO8
0.0,La-Rh,2,La3Rh2
0.0,La-Ru,2,La3Ru
0.0,La-O-Ru,3,La3RuO7
0.0,La-S,2,La3S4
0.7208999999999994,La-O-Sb,3,La3SbO3
0.0,La-Sc,2,La3Sc
0.0,Al-La-Sc,3,La3ScAl8
3.903699999999999,La-O-Sc,3,La3ScO6
4.0062,La-O-Sc,3,La3ScO6
0.0,La-Se,2,La3Se4
0.0,La-Si,2,La3Si2
3.8686,Cl-La-O-Si,4,La3Si2Cl3O7
4.4655000000000005,Cl-La-O-Si,4,La3Si2ClO8
4.411700000000001,Cl-La-O-Si,4,La3Si2ClO8
0.0,Cl-La-Si,3,La3Si3Cl2
0.0,La-Ni-Si,3,La3Si3Ni
0.0,La-Ni-Si,3,La3Si7Ni3
1.6782000000000004,La-N-O-Si,4,La3SiN3O2
0.0,La-Pd-Si,3,La3SiPd5
0.0,La-Sm,2,La3Sm
1.3941,Fe-La-O-Sm,4,La3Sm(FeO3)4
0.9318,Cr-Fe-La-O-Sm,5,La3SmCr2(FeO6)2
2.6897,Cr-La-O-Sm,4,La3SmCr4O12
0.7499000000000002,Cr-La-O-Sm-V,5,La3SmV2Cr2O12
0.8113000000000001,Cr-La-O-Sm-V,5,La3SmV3CrO12
0.0,La-Sn,2,La3Sn
0.0,La-Sn,2,La3Sn4
0.0,La-Sn,2,La3Sn5
0.0,La-Sn,2,La3Sn7
0.0,C-La-Sn,3,La3SnC
0.0,La-N-Sn,3,La3SnN
0.0,La-Ta,2,La3Ta
0.0,Cl-La-O-Ta,4,La3Ta(ClO2)3
0.0,Ga-La-O-Ta,4,La3TaGa5O14
3.5388,La-O-Ta,3,La3TaO7
3.4556000000000004,La-O-Ta,3,La3TaO7
2.6893,La-O-Ta-Ti,4,La3TaTi2O11
0.0,La-Tb,2,La3Tb
4.7001,La-O-P-Tb,4,La3Tb(PO4)4
0.0,La-Te,2,La3Te4
0.0,La-Ti,2,La3Ti
1.0174000000000003,La-N-O-Ti,4,La3Ti2N3O4
0.9928000000000008,La-N-O-Ti,4,La3Ti2N3O4
0.0,La-O-Ti,3,La3Ti4O12
3.1238,Ga-La-O-Ti,4,La3TiGa5O14
0.0,La-Tl,2,La3Tl
0.0,La-Tl,2,La3Tl5
0.0,C-La-Tl,3,La3TlC
0.0,La-Tm,2,La3Tm
1.5771999999999995,Cl-La-O-U,4,La3U(ClO2)3
0.1317000000000012,La-O-U,3,La3U2O10
0.2105000000000005,La-O-U,3,La3U2O10
0.0,Al-La-U,3,La3UAl8
2.2922,H-La-O-V,4,La3VH3O8
3.612400000000001,Cl-La-O-W,4,La3W(ClO2)3
0.0,La-Mn-Si-Y,4,La3Y(MnSi)4
0.0,As-Fe-La-O-Y,5,La3YFe4(AsO)4
0.2984,Hf-La-O-Y,4,La3YHf4O14
0.0,La-Sb-Y,3,La3YSb3
3.950799999999999,La-O-Sc-Y,4,La3YSc4O12
2.8755999999999995,La-O-Ti-Y,4,La3YTi4O14
0.0,La-Zn,2,La3Zn
2.9042000000000003,Ge-La-O-Sb-Zn,5,La3Zn3Ge2SbO14
0.0,Cu-La-O-Pb-Rh-Zn,6,La3ZnCuRh2PbO12
0.0,La-Ni-Zn,3,La3ZnNi3
0.0,La-Zr,2,La3Zr
3.7185,Ga-La-O-Zr,4,La3ZrGa5O14
0.0,B-Co-La,3,La4(CoB2)3
0.0,Al-La,2,La4Al
3.5749000000000004,Al-La-O,3,La4Al2O9
1.354,As-La-O-S,4,La4As2S5O4
0.0,As-La,2,La4As3
0.0,B-La-N,3,La4B2N5
0.0,B-Cl-La,3,La4B4Cl5
0.0,B-I-La,3,La4B4I5
2.5475000000000003,Bi-La-O,3,La4Bi2O9
0.0,Bi-La-Pb,3,La4Bi2Pb
0.0,Bi-La,2,La4Bi3
0.0,Bi-F-La-O-S,5,La4Bi4S8O3F
0.0,Bi-La-Pb,3,La4BiPb2
3.7675,Br-Cl-La-O,4,La4Br3ClO4
3.9305,Br-Cl-La-O,4,La4BrCl3O4
0.0,Br-C-La,3,La4C2Br5
0.0,C-Cl-La,3,La4C2Cl5
0.0,C-I-La,3,La4C2I5
0.0,C-Cl-La,3,La4C5Cl2
0.0,Ce-La-Pd,3,La4CePd15
0.0,Ce-La-Zn,3,La4CeZn5
0.4805999999999999,Ce-La-O-Zr,4,La4CeZr3O14
0.0,Co-La,2,La4Co
0.0,Co-La-Sn,3,La4Co2Sn5
0.0,Co-La-O,3,La4Co3O10
0.0,Co-La-O-Re,4,La4Co3ReO12
0.2971999999999992,Co-La-O,3,La4CoO8
0.9386,Co-La-O,3,La4CoO8
0.0,Cu-La-Mo-O,4,La4Cu3MoO12
0.0,Cu-La-Sb,3,La4Cu3Sb8
0.0,Cu-La-O-Se,4,La4Cu3SeO12
0.0,Cu-La-O-Te,4,La4Cu3TeO12
1.5626000000000009,Cu-La-O-S-Se,5,La4Cu4Se3SO4
1.6142999999999992,Cu-La-O-S-Se,5,La4Cu4SeS3O4
0.0,As-Cu-La,3,La4Cu5As8
0.0,Cu-La-Sb,3,La4Cu5Sb8
0.0,Cu-La-Ni-O,4,La4CuNiO8