eg,chemsys,nelements,formula
0.0,Er-Ga-Pt,3,Er4Ga12Pt
0.0,Co-Er-Ga,3,Er4Ga16Co3
0.0,Er-Ge-Ir,3,Er4Ge6Ir7
0.0,Er-Ge-Os,3,Er4Ge6Os7
0.0,Er-Ge-Rh,3,Er4Ge6Rh7
0.0,Er-I,2,Er4I5
0.0,Er-Ge-In-Ni,4,Er4In(NiGe2)2
0.0,Er-Ir,2,Er4Ir
0.0,B-C-Er-Lu-Ni,5,Er4LuNi10(B2C)5
1.0643000000000002,Er-Mg-S,3,Er4MgS7
0.2098000000000004,Er-Mg-O-Ti,4,Er4MgTi2O10
0.0,Er-Mg-O-Ti,4,Er4MgTi2O10
0.0,Er-Mg-O-Zr,4,Er4MgZr4O14
0.0,Er-Ge-Mn,3,Er4MnGe8
0.5553999999999997,Er-Mn-S,3,Er4MnS7
0.0,Er-Ni,2,Er4Ni
0.0,C-Er-Ni,3,Er4Ni13C4
0.0,C-Er-Ni,3,Er4Ni2C5
0.0,B-Er-Ni,3,Er4NiB13
0.0,Er-Ni-Sn,3,Er4NiSn8
0.0,Er-Pt,2,Er4Pt
0.0,Er-Rh,2,Er4Rh
0.0,Er-Sb,2,Er4Sb3
5.0561,Er-F-O-Si,4,Er4Si3O11F2
0.0,Er-Ni-Si,3,Er4SiNi3
0.0,B-Er-Ta-V,4,Er4TaV7B24
0.0,C-Er-N-Th,4,Er4ThCN4
0.0,Er-S-U,3,Er4US7
4.1461,Er-O-Zr,3,Er4Zr3O12
4.1668,Er-O-Zr,3,Er4Zr3O12
0.0,Co-Er-Te,3,Er5(CoTe)2
0.0,Er-Ge-Sb,3,Er5(GeSb)2
0.0,Er-Mo-O,3,Er5(MoO6)2
0.0,Er-Ni-Te,3,Er5(NiTe)2
0.0117000000000002,Er-O-Re,3,Er5(ReO6)2
0.0,Er-Sb-Si,3,Er5(SiSb)2
0.0,Au-Bi-Er,3,Er5BiAu2
0.0,Bi-Er-Pd,3,Er5BiPd2
0.0,Bi-Er-Pt,3,Er5BiPt2
0.0,Co-Er-P,3,Er5Co19P12
0.0,Cu-Er-Pb,3,Er5CuPb3
0.0,As-Er-Ga,3,Er5Ga2As
0.0,Er-Ga,2,Er5Ga3
0.0,Er-Ge,2,Er5Ge3
0.0,C-Er-Ge,3,Er5Ge3C
0.0,Er-In,2,Er5In3
0.0,Er-In-Ni,3,Er5InNi2
0.0,Er-Ir,2,Er5Ir2
0.0,Er-Ir,2,Er5Ir3
0.0,Er-Mg,2,Er5Mg
0.7666000000000004,Er-Mg-Mo-O,4,Er5Mg(MoO6)2
0.9513000000000004,Er-Mg-Mo-O,4,Er5Mg(MoO6)2
0.0,Bi-Er-Ni,3,Er5Ni2Bi
0.0,Er-Ni-Sb,3,Er5Ni2Sb
0.0,Er-Ni-Pb,3,Er5NiPb3
0.0,Er-Pb,2,Er5Pb3
0.0,Er-Pt,2,Er5Pt3
0.0,C-Er-Re,3,Er5Re2C7
0.0,Er-Rh,2,Er5Rh3
0.0,Er-Ru,2,Er5Ru2
0.0,Er-S,2,Er5S7
0.0,Er-Sb,2,Er5Sb3
0.0,Au-Er-Sb,3,Er5SbAu2
0.0,Er-Pd-Sb,3,Er5SbPd2
0.0,Er-Pt-Sb,3,Er5SbPt2
0.0,Er-Si,2,Er5Si3
0.0,B-Er-Si,3,Er5Si3B
0.0,C-Er-Si,3,Er5Si3C
0.0,Er-Sn,2,Er5Sn3
0.0,Er-Tl,2,Er5Tl3
0.0,Ag-Er-Ge-S,4,Er6Ag(GeS7)2
0.0,Al-Er-Ge,3,Er6Al2Ge7
0.0,Al-Cu-Er,3,Er6Al7Cu16
0.0,Co-Er-Sn,3,Er6Co2Sn
0.0,Bi-Co-Er,3,Er6CoBi2
0.0,Co-Er-Te,3,Er6CoTe2
0.0,Er-Fe,2,Er6Fe23
0.0,Bi-Er-Fe,3,Er6FeBi2
0.0,Er-Fe-Sb,3,Er6FeSb2
0.0,Co-Er-Ga,3,Er6GaCo2
0.0,Er-Ga-Ni,3,Er6GaNi2
0.0,Er-I,2,Er6I7
0.0,Co-Er-In,3,Er6InCo2
2.0932000000000004,Er-Ge-Mg-S,4,Er6Mg(GeS7)2
0.0,Er-Mg-O-Ta,4,Er6MgTa2O14
1.0094000000000003,Er-Ge-Mn-S,4,Er6Mn(GeS7)2
0.9204,Er-Mn-S-Si,4,Er6Mn(SiS7)2
0.0,Er-Mn,2,Er6Mn23
0.0,Bi-Er-Mn,3,Er6MnBi2
0.0,Er-Mn-Sb,3,Er6MnSb2
0.0,Er-Mn-Te,3,Er6MnTe2
2.1216,Er-Mo-O,3,Er6MoO12
0.0,Er-Ni-Sn,3,Er6Ni2Sn
0.0,Er-Ru-Te,3,Er6Te2Ru
2.8824,Er-O-Te,3,Er6TeO12
0.0,Er-Zn,2,Er6Zn23
0.0,Ag-Er-Te,3,Er7(AgTe)2
0.0,Er-Ni-Te,3,Er7(NiTe)2
0.0,Er-Ir-Te,3,Er7(TeIr)2
0.0,Er-Pd-Te,3,Er7(TePd)2
0.0,Er-Pt-Te,3,Er7(TePt)2
0.0,Er-Rh-Te,3,Er7(TeRh)2
0.0,Er-Rh,2,Er7Rh3
0.0,C-Er-Rh,3,Er8Rh5C12
0.0,Ag-Er,2,ErAg
2.9104,Ag-Er-O-W,4,ErAg(WO4)2
0.0,Ag-Er,2,ErAg2
0.0,Ag-Er,2,ErAg3
0.0,Ag-Er-Ge,3,ErAgGe
0.0,Ag-Er-Hg,3,ErAgHg2
0.0,Ag-Er-Pb,3,ErAgPb
0.7963999999999998,Ag-Er-S,3,ErAgS2
0.0,Ag-Er-S,3,ErAgS2
2.1143,Ag-Er-S,3,ErAgS2
0.6724999999999999,Ag-Er-S,3,ErAgS2
0.0,Ag-Er-Se,3,ErAgSe2
0.4090000000000002,Ag-Er-Se,3,ErAgSe2
1.2801,Ag-Er-Se,3,ErAgSe2
0.0,Ag-Er-Sn,3,ErAgSn
0.0,Ag-Er-Sn,3,ErAgSn2
1.1178000000000003,Ag-Er-Te,3,ErAgTe2
0.8936000000000002,Ag-Er-Te,3,ErAgTe2
0.0,Al-Er,2,ErAl
0.0,Al-Er,2,ErAl2
0.0,Al-Er-Ni,3,ErAl2Ni
0.0,Al-Er,2,ErAl3
5.616599999999999,Al-B-Er-O,4,ErAl3(BO3)4
0.0,Al-Er-Ni,3,ErAl3Ni2
0.0,Al-Au-Er-Ge,4,ErAl4Ge2Au
0.0,Al-Er-Ni,3,ErAl4Ni
0.0,Al-Au-Er,3,ErAl7Au3
0.0,Al-Er-Fe,3,ErAl7Fe5
0.0,Ag-Al-Er,3,ErAlAg2
0.0,Al-Au-Er,3,ErAlAu
0.0,Al-B-Er,3,ErAlB14
0.0,Al-B-Er,3,ErAlB4
0.0,Al-Co-Er,3,ErAlCo
0.0,Al-Cu-Er,3,ErAlCu
0.0,Al-Cu-Er,3,ErAlCu4
0.0,Al-Er-Fe,3,ErAlFe
0.0,Al-Er-Ga,3,ErAlGa
0.0,Al-Er-Ge,3,ErAlGe
3.7548,Al-Er-Ge-O,4,ErAlGeO5
0.0,Al-Er-Ni,3,ErAlNi
0.0,Al-Er-Ni,3,ErAlNi4
3.0097000000000005,Al-Er-O,3,ErAlO3
3.5604,Al-Er-O,3,ErAlO3
5.803000000000001,Al-Er-O,3,ErAlO3
0.0,Al-Er-Pd,3,ErAlPd
0.0,Al-Er-Pt,3,ErAlPt
0.0,Al-Er-Si,3,ErAlSi
0.0201999999999999,Al-Er-Si,3,ErAlSi
0.0,Al-Er-Zn,3,ErAlZn
0.0,As-Er,2,ErAs
0.0,As-Er,2,ErAs3
3.5786,As-Er-O,3,ErAsO4
0.0,As-Er-Pd,3,ErAsPd
0.0,As-Er-Pt,3,ErAsPt
0.0,As-Er-S,3,ErAsS
0.0,As-Er-Se,3,ErAsSe
0.4869000000000003,As-Er-Se,3,ErAsSe
0.0,Au-Er,2,ErAu
0.0,Au-Er,2,ErAu2
0.0,Au-Er,2,ErAu3
0.0,Au-Er,2,ErAu4
0.0,B-Er,2,ErB12
0.0,B-Er,2,ErB2
0.0,B-Er-Ir,3,ErB2Ir3
0.0,B-Er-Os,3,ErB2Os
0.0,B-C-Er-Rh,4,ErB2Rh2C
0.0,B-Er-Rh,3,ErB2Rh3
0.0,B-Er-Ru,3,ErB2Ru
0.0,B-Er-Ru,3,ErB2Ru3
0.0,B-Er-Mo,3,ErB3Mo
0.0,B-Er,2,ErB4
0.0,B-Er-Ir-Rh,4,ErB4(IrRh)2
0.5880999999999998,B-Er-Mo,3,ErB4Mo
0.0,B-Er-Os,3,ErB4Os
0.0,B-Er-Rh,3,ErB4Rh
0.0,B-Er-Rh,3,ErB4Rh7
0.0,B-Er-Ru,3,ErB4Ru
0.5911,B-Er-W,3,ErB4W
0.0,B-Er,2,ErB6
0.0,B-Er-Mo,3,ErB7Mo3
0.0,B-Er-H,3,ErBH4
5.6534,B-Er-O,3,ErBO3
4.563000000000001,B-Er-O,3,ErBO3
0.0,B-Er-Pd-Rh,4,ErBPd2Rh
0.0,B-Er-Pd,3,ErBPd3
0.0,B-Er-Pt-Rh,4,ErBPtRh2
0.0,B-Er-Rh,3,ErBRh3
0.0,Be-Er,2,ErBe13
0.1562999999999998,Be-Er-F-N,4,ErBeNF6
0.0,Be-Er-O,3,ErBeO3
0.0,Bi-Er,2,ErBi
1.3570000000000002,Bi-Br-Er-O,4,ErBi2BrO4
1.3769000000000005,Bi-Cl-Er-O,4,ErBi2ClO4
1.375,Bi-Er-I-O,4,ErBi2IO4
0.0,Bi-Er,2,ErBi3
2.47,Bi-Er-O,3,ErBiO3
3.1136000000000004,Bi-Er-O,3,ErBiO3
0.0,Bi-Er-Pd,3,ErBiPd
0.2469999999999999,Bi-Er-Pd,3,ErBiPd
0.0,Bi-Er-Pt,3,ErBiPt
0.0,Bi-Er-Rh,3,ErBiRh
2.5434,Bi-Er-O-W,4,ErBiW2O9
4.382000000000001,Br-Er-O,3,ErBrO
0.0,C-Er,2,ErC2
0.7939999999999999,C-Er-O,3,ErCO4
0.0,Cd-Er,2,ErCd
0.0,Cd-Er,2,ErCd2
0.0,Cd-Cu-Er,3,ErCd2Cu
0.0,Cd-Er,2,ErCd3
0.0,Ag-Cd-Er,3,ErCdAg2
0.0,Au-Cd-Er,3,ErCdAu
0.0,Au-Cd-Er,3,ErCdAu2
0.0,Cd-Cu-Er,3,ErCdCu4
0.0,Cd-Er-Ga,3,ErCdGa
0.0,Cd-Er-Hg,3,ErCdHg2
0.0,Cd-Er-In,3,ErCdIn
0.0,Cd-Er-Ni,3,ErCdNi4
0.0,Cd-Er-Pd,3,ErCdPd2
0.0,Cd-Er-Pt,3,ErCdPt2
0.0,Cd-Er-Rh,3,ErCdRh2
0.0,Cl-Er,2,ErCl2
3.7781,Cl-Er,2,ErCl3
5.1904,Cl-Er-O,3,ErClO
5.2575,Cl-Er-O,3,ErClO
0.0,Co-Er,2,ErCo2
0.0,B-Co-Er-Rh,4,ErCo2(B2Rh)2
0.0,Co-Er,2,ErCo3
0.0,B-Co-Er,3,ErCo3B2
0.0,Co-Er-Ge,3,ErCo3Ge2
0.0,Co-Er-Ni,3,ErCo3Ni2
0.0,Co-Er-P,3,ErCo3P2
0.0,Co-Er-Si,3,ErCo3Si2
0.0,B-Co-Er,3,ErCo4B
0.0,Co-Er,2,ErCo5
0.0,Co-Er-P,3,ErCo5P3
0.0,Co-Er-Si,3,ErCo9Si2
0.0,Co-Er-Si,3,ErCo9Si4
0.0,B-Co-Er,3,ErCoB4
0.0,C-Co-Er,3,ErCoC
0.0,C-Co-Er,3,ErCoC2
0.0,Co-Er-Ge,3,ErCoGe
0.0,Co-Er-Ge,3,ErCoGe2
0.0,Co-Er-Ni,3,ErCoNi
1.4471000000000005,Co-Er-O,3,ErCoO3
0.0,Co-Er-Ru,3,ErCoRu
0.0,Co-Er-Si,3,ErCoSi
0.0,Co-Er-Si,3,ErCoSi2
0.0,Co-Er-Si,3,ErCoSi3
0.0,Co-Er-Sn,3,ErCoSn
0.0,Co-Er-Sn,3,ErCoSn2
0.0,Cr-Er-O,3,ErCr2O2
0.0,C-Cr-Er-Si,4,ErCr2Si2C
0.1610999999999993,B-Cr-Er,3,ErCrB4
2.8837,Cr-Er-Ge-O,4,ErCrGeO5
0.2571000000000003,Cr-Er-O,3,ErCrO3
0.6012000000000004,Cr-Er-O,3,ErCrO4
0.3003999999999998,Cr-Er-O,3,ErCrO4
2.6495,Cr-Er-O-Te,4,ErCrTeO6
1.5039000000000002,Cr-Er-O-Te,4,ErCrTeO6
0.0,Cu-Er,2,ErCu
1.4556,Cu-Er-O-W,4,ErCu(WO4)2
1.0878999999999994,Cu-Er-O-W,4,ErCu(WO4)2
1.2269,Cu-Er-O-W,4,ErCu(WO4)2
0.0,Cu-Er,2,ErCu2
0.0,Cl-Cu-Er-O-Se,5,ErCu3Se2ClO8
0.0,Ag-Cu-Er,3,ErCu4Ag
0.0,Au-Cu-Er,3,ErCu4Au
0.0,Cu-Er-Pd,3,ErCu4Pd
0.0,Cu-Er,2,ErCu5
0.0,Cu-Er-Sn,3,ErCu5Sn
0.0,As-Cu-Er,3,ErCuAs2
0.0,Cu-Er-Ge,3,ErCuGe
0.0,Cu-Er-Ni,3,ErCuNi
0.0,Cu-Er-O,3,ErCuO3
0.0,Cu-Er-P,3,ErCuP2
0.0,Cu-Er-Pb,3,ErCuPb
1.5553,Cu-Er-Pb-S,4,ErCuPbS3
1.6292999999999995,Cu-Er-S,3,ErCuS2
1.8173,Cu-Er-S,3,ErCuS2
0.0,Cu-Er-Sb,3,ErCuSb2
1.0496,Cu-Er-Se,3,ErCuSe2
0.0,Cu-Er-Si,3,ErCuSi
0.0,Cu-Er-Sn,3,ErCuSn
0.3044000000000002,Cu-Er-Te,3,ErCuTe2
0.6612999999999998,Cu-Er-Te,3,ErCuTe2
7.6163,Er-F,2,ErF3
0.0,Er-Fe-Mo-N,4,ErFe10Mo2N
0.0,Er-Fe,2,ErFe2
0.0,B-Co-Er-Fe,4,ErFe2Co2B
0.0,Er-Fe-H,3,ErFe2H3
0.0,C-Er-Fe-Si,4,ErFe2SiC
0.0,Er-Fe,2,ErFe3
2.4089,B-Er-Fe-O,4,ErFe3(BO3)4
0.0,Cu-Er-Fe-O,4,ErFe4(CuO4)3
0.0,B-Er-Fe,3,ErFe4B
0.0,Er-Fe-P,3,ErFe5P3
0.0,Er-Fe-Ge-Sn,4,ErFe6(Sn2Ge)2
0.0,B-Er-Fe,3,ErFeB4
0.0,C-Er-Fe,3,ErFeC2
0.0,Co-Er-Fe,3,ErFeCo
0.0,Cu-Er-Fe,3,ErFeCu
0.0,Er-Fe-Ge,3,ErFeGe2
2.6630000000000003,Er-Fe-Ge-O,4,ErFeGe2O7
0.0,Er-Fe-Ni,3,ErFeNi
0.0,Er-Fe-Ni,3,ErFeNi4
1.5703,Er-Fe-O,3,ErFeO3
0.0,Er-Fe-Ru,3,ErFeRu
0.0,Er-Ga,2,ErGa
0.0,Er-Ga,2,ErGa2
0.0,Co-Er-Ga,3,ErGa2Co3
0.0,Cu-Er-Ga,3,ErGa2Cu3
0.0,Er-Ga-Ni,3,ErGa2Ni
0.0,Er-Ga-Ni,3,ErGa2Ni3
0.0,Er-Ga-Pd,3,ErGa2Pd
0.0,Er-Ga,2,ErGa3
0.0,Er-Ga-Os,3,ErGa3Os
0.0,Er-Ga-Ru,3,ErGa3Ru
0.0,Er-Ga-Ni,3,ErGa4Ni
0.0,Co-Er-Ga,3,ErGa5Co
0.0,Er-Ga,2,ErGa6
0.0,Ag-Er-Ga,3,ErGaAg
0.0,Au-Er-Ga,3,ErGaAu
0.0,Co-Er-Ga,3,ErGaCo
0.0,Er-Ga-Ir,3,ErGaIr
0.0,Er-Ga-Ni,3,ErGaNi
2.9153,Er-Ga-O,3,ErGaO3
3.6631,Er-Ga-O,3,ErGaO3
2.9001,Er-Ga-O,3,ErGaO3
0.0,Er-Ga-Pd,3,ErGaPd
0.0,Er-Ga-Pt,3,ErGaPt
0.0,Er-Ga-Rh,3,ErGaRh
0.0,Er-Ga-Rh,3,ErGaRh2
0.0,Er-Ge,2,ErGe
0.0,Er-Ge-Ir,3,ErGe2Ir
0.0,Er-Ge-Pt,3,ErGe2Pt
0.0,Er-Ge,2,ErGe3
0.0,Au-Er-Ge,3,ErGeAu
0.0,Er-Ge-Ir,3,ErGeIr
0.0,Er-Ge-Pd,3,ErGePd
0.0,Er-Ge-Pd,3,ErGePd2
0.0,Er-Ge-Pt,3,ErGePt
0.0,Er-Ge-Rh,3,ErGeRh
0.0156999999999998,Er-Ge-Rh,3,ErGeRh2
0.0,Er-Ge-Ru,3,ErGeRu
0.0,Er-H,2,ErH
0.0,Er-H,2,ErH2
4.921099999999999,Cl-Er-H-O,4,ErH2ClO2
0.0,Er-H,2,ErH3
3.6991,Er-H-I-O,4,ErH4I3O11
4.4956,C-Er-H-N-O,5,ErH9C5(NO4)2
0.0,Cl-Er-H,3,ErHCl
3.9885,Er-H-O,3,ErHO2
1.4817000000000005,Er-H-Se,3,ErHSe
6.858599999999999,Er-F-Hf,3,ErHfF7
0.0,Er-Hf-Ir,3,ErHfIr2
0.0,Er-Hf-Ru,3,ErHfRu2
0.0,Er-Hg,2,ErHg
0.0,Er-Hg,2,ErHg2
0.0,Er-Hg,2,ErHg3
2.0376000000000003,Er-I,2,ErI3
0.3238000000000001,Er-I-O,3,ErI3O11
0.0,Er-In,2,ErIn
0.0,Er-In-Ni,3,ErIn2Ni9
0.0,Er-In-Sn,3,ErIn2Sn
0.0,Er-In,2,ErIn3
0.0,Co-Er-In,3,ErIn5Co
0.0,Er-In-Rh,3,ErIn5Rh
0.0,Ag-Er-In,3,ErInAg2
0.0,Au-Er-In,3,ErInAu
0.0,Au-Er-In,3,ErInAu2
0.0,Co-Er-In,3,ErInCo4
0.0,Cu-Er-In,3,ErInCu
0.0,Cu-Er-In,3,ErInCu2
0.0,Cu-Er-In,3,ErInCu4
0.0,Er-In-Ni,3,ErInNi
0.0,Er-In-Ni,3,ErInNi4
2.5532,Er-In-O,3,ErInO3
1.9560000000000004,Er-In-O,3,ErInO3
0.0,Er-In-Pd,3,ErInPd
0.0,Er-In-Pd,3,ErInPd2
0.0,Er-In-Pt,3,ErInPt
0.0,Er-In-Pt,3,ErInPt2
0.0,Er-In-Pt,3,ErInPt4
0.0,Er-In-Rh,3,ErInRh
0.0,Er-In-Rh,3,ErInRh2
0.0,Er-Ir,2,ErIr
0.0,Er-Ir,2,ErIr2
0.0,Er-Ir-O,3,ErIrO3
0.0,B-Er-Lu-Ru,4,ErLu(B2Ru)2
0.0,Er-Lu,2,ErLu3
0.0,Cu-Er-Lu,3,ErLuCu2
0.0,Er-Hg-Lu,3,ErLuHg2
0.0,Er-Lu-Mg,3,ErLuMg2
4.525,Er-Lu-O,3,ErLuO3
0.0,Er-Lu-Pd,3,ErLuPd2
0.0,Er-Lu-Rh,3,ErLuRh2
0.0,Er-Lu-Ru,3,ErLuRu2
0.0,Er-Lu-Zn,3,ErLuZn2
0.0,Er-Mg,2,ErMg
0.0,Er-Mg,2,ErMg2
0.0,Er-Mg-Sc,3,ErMg2Sc
0.0,Er-Mg,2,ErMg3
0.0,Er-Mg,2,ErMg5
0.0,Ag-Er-Mg,3,ErMgAg
0.0,Ag-Er-Mg,3,ErMgAg2
0.0,Au-Er-Mg,3,ErMgAu
0.0,Au-Er-Mg,3,ErMgAu2
0.0,Cd-Er-Mg,3,ErMgCd2
0.0,Er-Ga-Mg,3,ErMgGa
0.0,Er-Hg-Mg,3,ErMgHg2
0.0,Er-In-Mg,3,ErMgIn
0.0,Er-Mg-Pd,3,ErMgPd
0.0,Er-Mg-Pd,3,ErMgPd2
0.0,Er-Mg-Rh,3,ErMgRh2
0.0,Er-Mg-S,3,ErMgS3
0.0,Er-Mg-Se,3,ErMgSe3
0.0,Er-Mg-Sn,3,ErMgSn
0.0,Er-Mg-Tl,3,ErMgTl
0.0,Er-Mg-Tl,3,ErMgTl2
0.0,Er-Mg-Zn,3,ErMgZn2
0.0,Er-Mn,2,ErMn12
0.0,Er-Mn,2,ErMn2
0.0,Er-Fe-Mn-Sn,4,ErMn2(Fe2Sn3)2
0.0,Er-Mn-O,3,ErMn2O3
0.0,Er-Mn-O,3,ErMn2O4
0.7631999999999999,Er-Mn-O,3,ErMn2O5
0.0,C-Er-Mn-Si,4,ErMn2SiC
0.0,Er-Fe-Mn-Sn,4,ErMn3(FeSn2)3
0.0,Cu-Er-Mn-O,4,ErMn4(CuO4)3
0.0,Er-Fe-Mn-Sn,4,ErMn4(FeSn3)2
0.0,Er-Ge-Mn-Sn,4,ErMn6(Sn2Ge)2
0.0,Al-Er-Mn,3,ErMnAl
0.0,B-Er-Mn,3,ErMnB4
0.0,Er-Fe-Mn,3,ErMnFe
0.0,Er-Fe-Mn-O,4,ErMnFeO4
1.1587,Er-Fe-Mn-O,4,ErMnFeO5
0.0,Er-Ga-Mn,3,ErMnGa
0.0,Er-Ge-Mn,3,ErMnGe
0.0,Er-Mn-Ni,3,ErMnNi4
0.0,Er-Mn-O,3,ErMnO3
0.2488999999999999,Er-Mn-O,3,ErMnO3
0.0,Er-Mn-Si,3,ErMnSi
0.0,C-Er-Mo,3,ErMoC2
2.4295,Cl-Er-Mo-O,4,ErMoClO4
3.512,Er-F-Mo-O,4,ErMoO4F
0.2000999999999999,Er-Mo-O,3,ErMoO5
0.0,Er-N,2,ErN
0.1242999999999998,Er-N,2,ErN
0.0,Er-Nb-O,3,ErNbO2
3.4799,Er-Nb-O,3,ErNbO4
3.4807,Er-Nb-O,3,ErNbO4
0.0,Er-Nb-Os,3,ErNbOs2
0.0,Er-Nb-Ru,3,ErNbRu2
0.0,Er-Ni,2,ErNi
0.0,Er-Ni,2,ErNi2
0.0,B-C-Er-Ni,4,ErNi2B2C
0.0,Er-Ni,2,ErNi3
0.0,Er-Ni,2,ErNi4
0.0,Au-Er-Ni,3,ErNi4Au
0.0,B-Er-Ni,3,ErNi4B
0.0,Er-Ni,2,ErNi5
0.0,B-Er-Ni,3,ErNi7B3
0.0,As-Er-Ni,3,ErNiAs
0.0,B-Er-Ni,3,ErNiB4
0.0,B-C-Er-Ni,4,ErNiBC
0.1699999999999999,Bi-Er-Ni,3,ErNiBi
0.0,C-Er-Ni,3,ErNiC2
0.0,Er-Ge-Ni,3,ErNiGe
0.0,Er-Ge-Ni,3,ErNiGe2
0.0,Er-Ge-Ni,3,ErNiGe3
0.3404000000000002,Er-Ni-O,3,ErNiO3
0.0,Er-Ni-O,3,ErNiO3
0.0,Er-Ni-P,3,ErNiP
0.0,Er-Ni-Pb,3,ErNiPb
0.2739000000000002,Er-Ni-Sb,3,ErNiSb
0.0,Er-Ni-Sn,3,ErNiSn
0.0,Er-Ni-Sn,3,ErNiSn4
0.0,Er-Np,2,ErNp3
0.0,Er-O,2,ErO
0.0,Er-O,2,ErO2
0.2098,Er-O,2,ErO3
5.2561,Er-F-O,3,ErOF
0.0,Er-Os,2,ErOs2
0.0,Er-Os,2,ErOs3
0.0,Er-P,2,ErP
0.6637,Er-H-O-P,4,ErP2H3O10
3.7291,C-Er-H-O-P,5,ErPH5CO7
5.919600000000001,Er-O-P,3,ErPO4
0.0,Er-P-Pd,3,ErPPd
0.0,C-Er-P-Ru,4,ErPRu2C
0.2325999999999997,Er-P-S,3,ErPS
0.0,Er-Pa,2,ErPa3
2.4341,Er-O-Pa,3,ErPaO4
3.198500000000001,Er-O-Pa,3,ErPaO4
0.0,Er-Os-Pa,3,ErPaOs2
0.0,Er-Pa-Ru,3,ErPaRu2
0.0,Er-Pa-Tc,3,ErPaTc2
0.0,Er-Pb,2,ErPb3
0.0,Au-Er-Pb,3,ErPbAu
0.0,Er-Pd,2,ErPd
0.0,Er-Pd,2,ErPd2
0.0,Er-Pb-Pd,3,ErPd2Pb
0.0,Er-Pd,2,ErPd3
0.0,Er-Pd-S,3,ErPd3S4
0.0,Er-Pb-Pd,3,ErPdPb
0.0,Er-Pt,2,ErPt
0.0,Er-Pt,2,ErPt2
0.0,Er-Pt,2,ErPt3
0.0,Er-Pt,2,ErPt5
2.2785,Er-F-Pt,3,ErPtF7
0.0,Er-Pu,2,ErPu3
0.0,Er-Re,2,ErRe2
0.0,C-Er-Re-Si,4,ErRe2SiC
0.0,B-Er-Re,3,ErReB4
0.0,Er-Rh,2,ErRh
0.0,Er-Rh,2,ErRh2
0.0,Er-Pb-Rh,3,ErRh2Pb
0.0,C-Er-Rh,3,ErRh3C
0.0,Er-Rh,2,ErRh5
0.9642,Er-O-Rh,3,ErRhO3
0.0,Er-Ru,2,ErRu2
0.0,Er-Ru,2,ErRu3
0.0,C-Er-Ru,3,ErRu3C
0.0,Er-S,2,ErS
0.0,Er-S,2,ErS2
0.3512000000000004,Er-S,2,ErS2
2.9329,Cl-Er-S,3,ErSCl
1.3243999999999998,Er-F-S,3,ErSF
1.1142,Er-I-S,3,ErSI
0.0,Er-Sb,2,ErSb
0.0,Er-Sb,2,ErSb2
0.0,Er-Sb,2,ErSb3
0.0,Er-Ir-Sb,3,ErSbIr
2.3824,Er-O-Sb,3,ErSbO4
2.2761000000000005,Er-O-Sb,3,ErSbO4
0.2092999999999998,Er-Pd-Sb,3,ErSbPd
0.0,Er-Pt-Sb,3,ErSbPt
0.0,Er-Rh-Sb,3,ErSbRh
0.0,Er-Rh-Sb,3,ErSbRh2
4.449,B-Er-O-Sc,4,ErSc(BO3)2
0.0,Er-Ge-Sc,3,ErScGe
4.4171,Er-O-Sc,3,ErScO3
0.0,Er-Ru-Sc,3,ErScRu2
1.7554999999999996,Er-S-Sc,3,ErScS3
0.0,Er-Sc-Si,3,ErScSi
0.0,Er-Sc-Zn,3,ErScZn2
0.0,Er-Se,2,ErSe
0.0,Er-Se,2,ErSe2
4.3487,Cl-Er-O-Se,4,ErSeClO3
2.309,Er-I-Se,3,ErSeI
4.3039000000000005,Er-F-O-Se,4,ErSeO3F
0.0,Er-Si,2,ErSi
0.0,Er-Si,2,ErSi2
0.0,Er-Ni-Si,3,ErSi2Ni
0.0,Er-Rh-Si,3,ErSi2Rh3
0.0,Er-Ni-Si,3,ErSi3Ni
0.0,Er-Ni-Si,3,ErSi3Ni5
0.0,Ag-Er-Si,3,ErSiAg
0.0,Er-Ir-Si,3,ErSiIr
0.0,Er-Ni-Si,3,ErSiNi
0.0,Er-Ni-Si,3,ErSiNi3
0.0,C-Er-Os-Si,4,ErSiOs2C
0.0,Er-Pd-Si,3,ErSiPd
0.0,Er-Pd-Si,3,ErSiPd2
0.0,Er-Pt-Si,3,ErSiPt
0.0,Er-Rh-Si,3,ErSiRh
0.0,Er-Rh-Si,3,ErSiRh2
0.0,Er-Ru-Si,3,ErSiRu
0.0,C-Er-Ru-Si,4,ErSiRu2C
0.0,Er-Sn,2,ErSn2
0.0,Er-Sn,2,ErSn3
0.0,Au-Er-Sn,3,ErSnAu
0.0060999999999999,Au-Er-Sn,3,ErSnAu
0.0,Er-Ge-Sn,3,ErSnGe
0.0,Er-Ir-Sn,3,ErSnIr
0.0,Er-Pd-Sn,3,ErSnPd
0.0,Er-Pd-Sn,3,ErSnPd2
0.0,Er-Pt-Sn,3,ErSnPt
0.0,Er-Pt-Sn,3,ErSnPt2
0.0,Er-Rh-Sn,3,ErSnRh
0.0,Er-Rh-Sn,3,ErSnRh2
0.0,Er-Ru-Sn,3,ErSnRu2
0.0,Er-Ta,2,ErTa3
3.0096000000000003,Er-O-Ta,3,ErTa3O9
0.0,Er-O-Ta,3,ErTaO3
4.050700000000001,Er-O-Ta,3,ErTaO4
4.0517,Er-O-Ta,3,ErTaO4
0.0,Er-Os-Ta,3,ErTaOs2
0.0,Er-Ru-Ta,3,ErTaRu2
0.0,Er-Tc,2,ErTc2
0.2050999999999998,Er-Tc-W,3,ErTc2W
0.0,Er-Te,2,ErTe
0.0,Er-Te,2,ErTe2
0.0,Er-Te,2,ErTe3
0.3619000000000003,As-Er-Te,3,ErTeAs
0.0,Er-Th,2,ErTh
0.0,C-Er-N-Th,4,ErThCN
0.0,Er-Re-Th,3,ErThRe4
0.0,Er-Ru-Th,3,ErThRu2
0.0,Er-Tc-Th,3,ErThTc2
3.1421,Cl-Er-O-Ti,4,ErTiClO3
0.0,Co-Er-Ti,3,ErTiCo11
0.0,Er-Fe-Ti,3,ErTiFe11
0.0,C-Er-Fe-Ti,4,ErTiFe11C
0.0,Er-Fe-N-Ti,4,ErTiFe11N
0.0,Co-Er-Fe-Ti,4,ErTiFe8Co3
0.0,Er-Ge-Ti,3,ErTiGe
0.0,Er-O-Ti,3,ErTiO3
0.0,Er-Si-Ti,3,ErTiSi
0.0,Er-Tl,2,ErTl
2.9077,Er-O-Tl-W,4,ErTl(WO4)2
0.0,Er-Tl,2,ErTl3
0.0,Cu-Er-Tl,3,ErTlCu
1.3714999999999995,Er-O-Tl,3,ErTlO2
0.0,Er-O-Tl,3,ErTlO3
0.0,Er-Pd-Tl,3,ErTlPd
0.0,Er-Rh-Tl,3,ErTlRh2
1.4109000000000005,Er-S-Tl,3,ErTlS2
1.2151000000000003,Er-Se-Tl,3,ErTlSe2
1.035,Er-Te-Tl,3,ErTlTe2
0.0,Er-Tl-Zn,3,ErTlZn
0.0,Er-Tm,2,ErTm3
0.0,Ag-Er-Tm,3,ErTmAg2
0.0,Cd-Er-Tm,3,ErTmCd2
0.0,Cu-Er-Tm,3,ErTmCu2
0.0,Er-Hg-Tm,3,ErTmHg2
0.0,Er-In-Tm,3,ErTmIn2
0.0,Er-Mg-Tm,3,ErTmMg2
0.0,Er-Pd-Tm,3,ErTmPd2
0.0,Er-Ru-Tm,3,ErTmRu2
0.0,Er-Tl-Tm,3,ErTmTl2
0.0,Er-Tm-Zn,3,ErTmZn2
0.0,Er-U,2,ErU
0.0,Er-O-S-U,4,ErU2S3O2
0.0,Er-N-U,3,ErUN2
0.0,Er-Te-U,3,ErUTe4
0.0,Er-Te-U,3,ErUTe6
0.0,Er-Fe-N-V,4,ErV2Fe10N
0.0,Er-O-V,3,ErV2O2
0.0,B-Er-V,3,ErVB4
0.0,Er-O-V,3,ErVO2
1.5838,Er-O-V,3,ErVO3
2.7173,Er-O-V,3,ErVO4
2.9661,Er-O-V,3,ErVO4
2.7085,Br-Er-O-W,4,ErWBrO4
0.0,C-Er-W,3,ErWC2
3.5689,Cl-Er-O-W,4,ErWClO4
0.0,Er-O-W,3,ErWO5
0.0,Er-Zn,2,ErZn
0.0,Er-Zn,2,ErZn12
0.0,Er-Zn,2,ErZn2
0.0,Er-Zn,2,ErZn3
0.0,Er-Zn,2,ErZn5
1.1517000000000008,As-Er-O-Zn,4,ErZnAsO
0.1001000000000003,Cu-Er-P-Zn,4,ErZnCuP2
0.0,Er-Ga-Zn,3,ErZnGa
0.0,Er-Ge-Zn,3,ErZnGe
0.0,Er-In-Zn,3,ErZnIn
0.0,Er-Ni-Zn,3,ErZnNi
0.0,Er-O-Zn,3,ErZnO3
0.0,Er-Pd-Zn,3,ErZnPd
0.0,Er-Pd-Zn,3,ErZnPd2
0.0,Er-Pt-Zn,3,ErZnPt
0.0,Er-Rh-Zn,3,ErZnRh
0.0,Er-Rh-Zn,3,ErZnRh2
0.0,Er-Sn-Zn,3,ErZnSn
0.0,Er-Zr,2,ErZr
5.8927,Er-F-Zr,3,ErZrF7
0.0,Er-Ru-Zr,3,ErZrRu2
0.0,Er-Sb-Zr,3,ErZrSb
0.0,Eu,1,Eu
0.0,Ag-Eu-Sb,3,Eu(Ag2Sb)2
0.0,Ag-Eu-Ge,3,Eu(AgGe)2
0.0,Al-Cu-Eu,3,Eu(Al2Cu)4
0.0,Al-Eu-Fe,3,Eu(Al2Fe)4
0.0,Al-Au-Eu,3,Eu(AlAu)2
0.0,Al-Eu-Ga,3,Eu(AlGa)2
0.0,Al-Eu-Ge,3,Eu(AlGe)2
1.1797000000000004,Al-Eu-S,3,Eu(AlS2)2
1.0021999999999998,Al-Eu-Se,3,Eu(AlSe2)2
0.0,Al-Eu-Si,3,Eu(AlSi)2
0.0,Al-Eu-Zn,3,Eu(AlZn)2
0.0,As-Eu-Pd,3,Eu(AsPd)2
0.0,As-Eu-Pt,3,Eu(AsPt)2
0.0,As-Eu-Rh,3,Eu(AsRh)2
0.0,As-Eu-Ru,3,Eu(AsRu)2
0.0,B-C-Eu,3,Eu(BC)2
1.5599,B-Eu-H,3,Eu(BH4)2
1.572,B-Eu-H,3,Eu(BH4)2
1.3830999999999998,B-Eu-H,3,Eu(BH4)2
0.0,B-Eu-Ir,3,Eu(BIr)2
0.0,B-Eu-Ir,3,Eu(BIr)4
0.2902999999999993,B-Eu-O,3,Eu(BO2)2
0.0,B-Eu-O,3,Eu(BO2)3
0.0,B-Eu-Os,3,Eu(BOs)4
0.0,B-Eu-Ru,3,Eu(BRu)4
0.0,Bi-Eu-Pd,3,Eu(BiPd)2
0.0,C-Eu-N,3,Eu(C2N3)3
0.0,As-Cd-Eu,3,Eu(CdAs)2
0.0,Cd-Eu-P,3,Eu(CdP)2
0.0,Cd-Eu-Sb,3,Eu(CdSb)2
0.0,Cl-Eu-O,3,Eu(ClO2)3
0.0,Cl-Eu-O,3,Eu(ClO4)3
0.0,As-Co-Eu,3,Eu(CoAs)2
0.0,Co-Eu-Ge,3,Eu(CoGe)2
0.0,Co-Eu-P,3,Eu(CoP)2
0.0,Co-Eu-Si,3,Eu(CoSi)2
0.0,As-Cr-Eu,3,Eu(CrAs)2
0.0,As-Cu-Eu,3,Eu(Cu2As)2
0.0,Cu-Eu-Sn,3,Eu(Cu2Sn)2
0.0,Cu-Eu-Ge,3,Eu(CuGe)2
0.0,Cu-Eu-O,3,Eu(CuO2)2
0.0,Cu-Eu-Sb,3,Eu(CuSb)2
0.0,Cu-Eu-Si,3,Eu(CuSi)2
0.0,Cu-Eu-Sn,3,Eu(CuSn)2
0.4659999999999993,Er-Eu-S,3,Eu(ErS2)2
0.0,As-Eu-Fe,3,Eu(FeAs)2
0.0,Eu-Fe-P,3,Eu(FeP)2
0.0,Eu-Fe-P,3,Eu(FeP3)4
0.0,Eu-Fe-Si,3,Eu(FeSi)2
0.0238999999999998,As-Eu-Ga,3,Eu(GaAs)2
0.0,Eu-Ga-Ge,3,Eu(GaGe2)2
0.0,Eu-Ga-P,3,Eu(GaP)2
0.399,Eu-Ga-S,3,Eu(GaS2)2
0.0,Eu-Ga-Se,3,Eu(GaSe2)2
0.0,Eu-Ga-Te,3,Eu(GaTe2)2
0.2412999999999998,Eu-Gd-S,3,Eu(GdS2)2
0.0,Eu-Ge-Pt,3,Eu(Ge3Pt)4
0.0,Au-Eu-Ge,3,Eu(GeAu)2
0.0,Eu-Ge-Ir,3,Eu(GeIr)2
0.0,Eu-Ge-Pt,3,Eu(GePt)2
0.0,Eu-Ge-Rh,3,Eu(GeRh)2
0.0,Eu-Ge-Ru,3,Eu(GeRu)2
0.0,Eu-H-O,3,Eu(HO)3
0.0,Ag-Eu-In,3,Eu(In2Ag)4
0.0,As-Eu-In,3,Eu(InAs)2
0.0,Au-Eu-In,3,Eu(InAu)3
0.0,Eu-In-S,3,Eu(InS2)2
0.0786000000000002,Eu-In-Se,3,Eu(InSe2)2
0.3838999999999997,Eu-Lu-S,3,Eu(LuS2)2
0.0,As-Eu-Mg,3,Eu(MgAs)2
0.0,Bi-Eu-Mg,3,Eu(MgBi)2
0.0,Eu-Ga-Mg,3,Eu(MgGa)2
0.0,Eu-Ge-Mg,3,Eu(MgGe)3
0.0,Eu-H-Mg,3,Eu(MgH3)2
0.0,Eu-Mg-P,3,Eu(MgP)2
0.0,Eu-Mg-Sb,3,Eu(MgSb)2
0.0,As-Eu-Mn,3,Eu(MnAs)2
0.0,Eu-Ge-Mn,3,Eu(MnGe)2
0.0,Eu-Mn-P,3,Eu(MnP)2
0.0,Eu-Mn-Sb,3,Eu(MnSb)2
0.0,Eu-Mo-S,3,Eu(Mo3S4)2
0.0,Eu-Mo-Se,3,Eu(Mo3Se4)2
0.0,B-Eu-Ni,3,Eu(Ni2B)6
0.0,Eu-Ni-S,3,Eu(Ni3S4)2
0.0,Eu-Ni-P,3,Eu(Ni5P3)2
0.0,As-Eu-Ni,3,Eu(NiAs)2
0.0,Eu-Ge-Ni,3,Eu(NiGe)2
0.0,Eu-Ni-P,3,Eu(NiP)2
0.0,Eu-Ni-Sb,3,Eu(NiSb)2
0.0,Eu-P-Ru,3,Eu(P3Ru)4
0.3360999999999992,Eu-Ir-P,3,Eu(PIr)2
0.0,Eu-O-P,3,Eu(PO3)3
0.0,Eu-Os-P,3,Eu(POs)2
0.0,Eu-P-Pd,3,Eu(PPd)2
0.0,Eu-P-Rh,3,Eu(PRh)2
0.0,Eu-P-Ru,3,Eu(PRu)2
0.4788,Eu-O-Re,3,Eu(ReO4)2
0.0,Eu-Os-Sb,3,Eu(Sb3Os)4
0.0,Eu-Ru-Sb,3,Eu(Sb3Ru)4
0.0,Eu-Pd-Sb,3,Eu(SbPd)2
0.0,Ag-Eu-Si,3,Eu(SiAg)2
0.0,Au-Eu-Si,3,Eu(SiAu)2
0.0,Eu-Ir-Si,3,Eu(SiIr)2
0.0,Eu-Ni-Si,3,Eu(SiNi)2
0.0,Eu-Pd-Si,3,Eu(SiPd)2
0.0,Eu-Pt-Si,3,Eu(SiPt)2
0.0,Eu-Rh-Si,3,Eu(SiRh)2
0.0,Eu-Ru-Si,3,Eu(SiRu)2
0.0,Eu-Pd-Sn,3,Eu(SnPd)2
0.4535999999999998,Eu-S-Y,3,Eu(YS2)2
0.0,As-Eu-Zn,3,Eu(ZnAs)2
0.0,Eu-Ga-Zn,3,Eu(ZnGa)2
0.0,Eu-Ge-Zn,3,Eu(ZnGe)2
0.0,Eu-P-Zn,3,Eu(ZnP)2
0.0,Eu-Sb-Zn,3,Eu(ZnSb)2
0.0,Eu-Si-Zn,3,Eu(ZnSi)2
0.0,Eu-Sn-Zn,3,Eu(ZnSn)2
0.0,Ag-Al-Eu,3,Eu2(AlAg)5
0.0,Al-Au-Eu,3,Eu2(AlAu2)3
0.0,Cu-Eu-Ni,3,Eu2(CuNi)5
0.0,Eu-Ga-Ir,3,Eu2(Ga3Ir)3
0.0,Eu-Ga-Rh,3,Eu2(Ga3Rh)3
0.0,Eu-Mo-O,3,Eu2(MoO4)3
0.0,Eu-Ni-Zn,3,Eu2(ZnNi)5
0.0,Eu-Se-Zr,3,Eu2(ZrSe2)5
0.0,Ag-Eu-O,3,Eu2Ag2O5
0.0,Ag-Au-Eu,3,Eu2AgAu
0.0,Ag-Bi-Eu,3,Eu2AgBi
0.0,Ag-Eu-Ge,3,Eu2AgGe
0.0,Ag-Eu-Hg,3,Eu2AgHg
0.0,Ag-Eu-Pb,3,Eu2AgPb
0.0,Ag-Eu-Pd,3,Eu2AgPd
0.0,Ag-Eu-Pt,3,Eu2AgPt
0.0,Ag-Eu-Rh,3,Eu2AgRh
0.0,Ag-Eu-Sb,3,Eu2AgSb
0.0,Ag-Eu-Sn,3,Eu2AgSn
0.0,Al-Eu-O,3,Eu2Al2O5
0.0,Ag-Al-Eu,3,Eu2Al3Ag
0.0,Al-Eu-Ga,3,Eu2Al3Ga
0.2191,Al-Eu-O,3,Eu2Al3O8
0.0,Al-Eu-O,3,Eu2Al4O9
0.0,Al-Au-Eu-Si,4,Eu2Al6Si3Au2
0.0,Al-Eu-N-O,4,Eu2AlNO3
0.0,Al-Eu-P-Pt,4,Eu2AlP3Pt7
0.0,As-Eu-O,3,Eu2As2O5
0.0,As-Eu-Pt,3,Eu2As3Pt
0.0,As-Eu-Pd,3,Eu2As7Pd12
0.0,As-Au-Eu,3,Eu2AsAu
0.0819,B-Eu-O,3,Eu2B2O5
0.0,B-Eu-Rh,3,Eu2B4Rh5
0.0,B-Eu-Os,3,Eu2B5Os3
0.0,B-Br-Eu-N,4,Eu2BBrN2
0.0,B-Eu-Pd,3,Eu2BPd6