eg,chemsys,nelements,formula
1.3114999999999997,Ba-Co-Er-O,4,BaEr2CoO5
0.0,Ba-Cu-Er-O,4,BaEr2CuO5
7.215,Ba-Er-F,3,BaEr2F8
2.1575,Ba-Er-Ni-O,4,BaEr2NiO5
3.6265,Ba-Er-O,3,BaEr2O4
4.8348,Ba-Er-O-Si,4,BaEr2Si3O10
0.9827999999999996,Ag-Ba-Er-S,4,BaErAgS3
1.3771,Ag-Ba-Er-Se,4,BaErAgSe3
2.6118999999999994,Al-Ba-Er-N-O-Si,6,BaErAl3SiN4O3
1.1574999999999998,Ba-Cu-Er-S,4,BaErCuS3
0.9489000000000004,Ba-Cu-Er-Se,4,BaErCuSe3
0.0,Ba-Er-Fe-O,4,BaErFe4O7
0.0,Ba-Er-Mn-O,4,BaErMn2O5
0.0,Ba-Er-O,3,BaErO3
0.0,Ba-Co-Eu-O,4,BaEu(CoO3)4
0.0,Ba-Eu-Fe-O,4,BaEu(FeO3)4
0.0,Ba-Eu-Ge-O,4,BaEu(GeO3)4
0.0,Ba-Eu-O-Sn,4,BaEu(SnO3)4
0.0,Ba-Eu-O-W,4,BaEu(WO3)4
0.0,Ba-Co-Eu-O,4,BaEu2CoO5
0.0,Ba-Eu-Mn-O,4,BaEu2Mn2O7
0.0,Ba-Eu-Ni-O,4,BaEu2NiO5
0.0,Ba-Eu-O,3,BaEu2O4
0.0,Ba-Eu-O-Pd,4,BaEu2PdO5
0.0,Ba-Eu-O-Pt,4,BaEu2PtO5
0.0,Ba-Eu,2,BaEu3
0.0,Ba-Bi-Eu-O-Sb,5,BaEuBiSbO6
0.0944000000000002,Ba-Bi-Eu-O-Sb,5,BaEuBiSbO6
0.0,Ba-Cr-Eu-O,4,BaEuCr4O12
0.0,Ba-Bi-Cr-Eu-O,5,BaEuCrBiO6
0.0,Ba-Cr-Eu-O-Sn,5,BaEuCrSnO6
0.0,Ba-Dy-Eu-Mn-O,5,BaEuDyMnO6
0.4085999999999998,Ba-Dy-Eu-O-Sb,5,BaEuDySbO6
0.0,Ba-Dy-Eu-O-Sn,5,BaEuDySnO6
0.0907,Ba-Dy-Eu-O-V,5,BaEuDyVO6
0.1035000000000003,Ba-Dy-Eu-O-W,5,BaEuDyWO6
0.0,Ba-Dy-Eu-O-W,5,BaEuDyWO6
0.0,Ba-Eu-Fe-O,4,BaEuFe2O5
0.0,Ba-Bi-Eu-Fe-O,5,BaEuFeBiO6
0.0,Ba-Cu-Eu-Fe-O,5,BaEuFeCuO5
0.0,Ba-Eu-Fe-O-Sn,5,BaEuFeSnO6
0.0,Ba-Eu-Hf-Nb-O,5,BaEuHfNbO6
0.4308000000000005,Ba-Eu-Hf-O-Sn,5,BaEuHfSnO6
0.4265999999999996,Ba-Eu-Hf-O-Zr,5,BaEuHfZrO6
0.0,Ba-Bi-Eu-In-O,5,BaEuInBiO6
0.0,Ba-Eu-In-O-W,5,BaEuInWO6
0.0,Ba-Eu-Fe-Mg-O,5,BaEuMgFe2O5
0.0891999999999999,Ba-Bi-Eu-Nb-O,5,BaEuNbBiO6
0.8959000000000001,Ba-Bi-Eu-Nb-O,5,BaEuNbBiO6
0.681,Ba-Eu-In-Nb-O,5,BaEuNbInO6
0.1256000000000003,Ba-Eu-Nb-O-Sb,5,BaEuNbSbO6
0.8037999999999998,Ba-Eu-Nb-O-Sb,5,BaEuNbSbO6
0.0,Ba-Eu-Nb-O-Sn,5,BaEuNbSnO6
0.0,Ba-Eu-O,3,BaEuO2
0.0,Ba-Eu-O,3,BaEuO3
0.0335,Ba-Eu-S,3,BaEuS2
0.0,Ba-Bi-Eu-O-Sn,5,BaEuSnBiO6
0.8804999999999996,Ba-Eu-O-Sn-W,5,BaEuSnWO6
0.1386000000000002,Ba-Eu-O-Sn-W,5,BaEuSnWO6
0.0,Ba-Eu-O-Ti,4,BaEuTi4O12
0.0,Ba-Bi-Eu-O-Ti,5,BaEuTiBiO6
0.0,Ba-Eu-O-V,4,BaEuV4O12
0.1335999999999995,Ba-Bi-Eu-O-V,5,BaEuVBiO6
0.0,Ba-Bi-Eu-O-V,5,BaEuVBiO6
0.0,Ba-Eu-O-Sn-V,5,BaEuVSnO6
0.0,Ba-Bi-Eu-O-Y,5,BaEuYBiO6
0.0,Ba-Cr-Eu-O-Y,5,BaEuYCrO6
0.0598999999999998,Ba-Eu-O-Sb-Y,5,BaEuYSbO6
0.4290000000000002,Ba-Eu-O-Sb-Y,5,BaEuYSbO6
0.0,Ba-Eu-O-Sn-Y,5,BaEuYSnO6
0.0692000000000003,Ba-Eu-O-V-Y,5,BaEuYVO6
0.0,Ba-Eu-O-W-Y,5,BaEuYWO6
0.1494999999999997,Ba-Eu-O-W-Y,5,BaEuYWO6
0.2241999999999997,Ba-Eu-O-Zr,4,BaEuZr2O6
0.0,Ba-Eu-O-Zr,4,BaEuZr4O12
0.0,Ba-Eu-Nb-O-Zr,5,BaEuZrNbO6
0.7465000000000002,Ba-Eu-O-Sn-Zr,5,BaEuZrSnO6
6.6029,Ba-F,2,BaF2
6.855300000000001,Ba-F,2,BaF2
5.9306,Ba-F,2,BaF2
0.0,Ba-F,2,BaF3
3.5786,Ba-Fe-O-Si,4,BaFe(Si2O5)2
0.0,Ba-Fe,2,BaFe12
1.7887,Ba-Fe-O-P,4,BaFe2(P2O7)2
2.1328,Ba-Fe-O-P,4,BaFe2(PO4)2
3.5212,Ba-Fe-O-P,4,BaFe2(PO4)2
3.605,Ba-Fe-O-P,4,BaFe2(PO4)2
1.6729,Ba-F-Fe-O-P,5,BaFe2P2O7F2
0.0,Ba-Fe-O-S,4,BaFe2S2O
2.1257,Ba-Fe-O-S,4,BaFe2S2O
0.0,Ba-Fe-S,3,BaFe2S3
0.0,Ba-Fe-Se,3,BaFe2Se3
1.1157,Ba-Fe-O-P,4,BaFe3(PO4)3
1.6662,Ba-Fe-O,3,BaFe4O7
0.0,Ba-Fe-O,3,BaFe4O7
1.6460999999999997,Ba-Fe-O-Sn,4,BaFe4Sn2O11
1.6971000000000005,Ba-Fe-O-Sn,4,BaFe4Sn2O11
0.0,As-Ba-Fe-Ru,4,BaFeAs2Ru
1.7888,B-Ba-Fe-O-P,5,BaFeBP2O9
0.0,Ba-Co-Fe-O-Pb,5,BaFeCoPbO5
0.3700000000000001,Ba-Cu-F-Fe,4,BaFeCuF7
0.1182,Ba-Cu-F-Fe,4,BaFeCuF7
0.0,Ba-Cl-Cu-Fe-O-Pb,6,BaFeCuPb2ClO5
3.3521,Ba-F-Fe,3,BaFeF4
0.4455,Ba-F-Fe-O,4,BaFeO2F
0.0,Ba-Fe-O,3,BaFeO3
1.4123,Ba-Fe-O,3,BaFeO4
2.2199,Ba-F-Fe-O-P,5,BaFeP(O2F)2
2.6171,Ba-Fe-H-O-P,5,BaFeP3H2O11
2.9849999999999994,Ba-Fe-H-O-P,5,BaFePHO5
0.0,Ba-Fe-S,3,BaFeS
0.0,Ba-Ga,2,BaGa2
3.9842,B-Ba-Ga-O,4,BaGa2B2O7
2.7663,Ba-Ga-Ge-S,4,BaGa2GeS6
1.9186,Ba-Ga-Ge-Se,4,BaGa2GeSe6
3.0907,Ba-Ga-S-Si,4,BaGa2SiS6
2.3894,Ba-Ga-Se-Si,4,BaGa2SiSe6
0.0,Ba-Ga-Sn,3,BaGa3Sn
0.0,Ba-Ga,2,BaGa4
3.4333,Ba-Ga-O,3,BaGa4O7
4.976,B-Ba-Ga-H-O,5,BaGaB4H3O10
1.9376,B-Ba-Ga-H-O,5,BaGaB4H3O10
4.9696,B-Ba-F-Ga-O,5,BaGaBO3F2
0.0,Ba-Cu-Ga,3,BaGaCu2
1.3948999999999998,Ba-Cu-Ga-Se,4,BaGaCu3Se4
5.7568,Ba-F-Ga,3,BaGaF5
0.0,Ba-Ga-Ge,3,BaGaGe
0.0661,Ba-Ga-Ge-H,4,BaGaGeH
0.0,Ba-Ga-H,3,BaGaH4
3.2255,Ba-Ga-H,3,BaGaH5
3.1292,Ba-Ga-H,3,BaGaH5
0.0,Ba-Ga-Si,3,BaGaSi
0.4792,Ba-Ga-H-Si,4,BaGaSiH
0.0,Ba-Ga-Sn,3,BaGaSn
0.0524,Ba-Ga-H-Sn,4,BaGaSnH
0.0,Ba-Co-Gd-O,4,BaGd(CoO3)2
0.0,Ba-Co-Gd-O,4,BaGd2CoO5
0.9400000000000004,Ba-Gd-Ni-O,4,BaGd2NiO5
2.8146000000000004,Ba-Gd-O,3,BaGd2O4
0.0275000000000003,Ba-Gd-O-Pd,4,BaGd2PdO5
2.0430000000000006,Ba-Gd-O-Pt,4,BaGd2PtO5
0.1457999999999999,Ba-Gd-O-Si,4,BaGd2Si3O10
0.8572000000000002,Au-Ba-Gd-Se,4,BaGdAuSe3
1.9979,Ba-Cl-Gd,3,BaGdCl5
0.0,Ba-Co-Gd-O,4,BaGdCo2O5
0.0,Ba-Cr-Fe-Gd-O,5,BaGdCrFeO6
0.0,B-Ba-Cu-Gd-O,5,BaGdCuBO5
1.0862000000000005,Ba-Cu-Gd-S,4,BaGdCuS3
0.8826,Ba-Cu-Gd-Se,4,BaGdCuSe3
0.5030999999999999,Ba-Cu-Gd-Te,4,BaGdCuTe3
0.0,Ba-Fe-Gd-O,4,BaGdFe2O5
1.6574999999999998,Ba-Fe-Gd-O,4,BaGdFe4O7
0.0,Ba-Cu-Fe-Gd-O,5,BaGdFeCuO5
1.6715000000000004,Ba-Gd-In-O-W,5,BaGdInWO6
1.6839,Ba-Gd-Nb-O-Sn,5,BaGdNbSnO6
2.1665,Ba-Gd-Nb-O-Sn,5,BaGdNbSnO6
0.0,Ba-Ge,2,BaGe
2.7087,As-Ba-Ge-O,4,BaGe(AsO4)2
4.1615,Ba-Ge-O-P,4,BaGe(PO4)2
0.0,Ba-Ge,2,BaGe2
0.0,B-Ba-Ge,3,BaGe2B
1.8132,Ba-Ge-O,3,BaGe2O5
0.0,Ba-Ge,2,BaGe3
0.0,Ba-Ge-Ir,3,BaGe3Ir
0.0,Ba-Ge-O,3,BaGe3O8
0.0,Ba-Ge-Pd,3,BaGe3Pd
0.0,Ba-Ge-Pt,3,BaGe3Pt
0.0,Ba-Ge-Rh,3,BaGe3Rh
0.0,Ba-Ge,2,BaGe5
0.0,Ba-Ge,2,BaGe6
0.0,Au-Ba-Ge,3,BaGeAu3
5.6043,Ba-F-Ge,3,BaGeF6
0.0,Ba-Ge-O,3,BaGeO3
3.5519,Ba-Ge-O,3,BaGeO3
0.0,Ba-Ge-O,3,BaGeO4
3.4303,Ba-Ge-O-Pb,4,BaGePbO4
0.0,Ba-Ge-Pt,3,BaGePt
3.5321,Ba-Br-H-O,4,BaH(BrO3)2
1.6461,Ba-H,2,BaH2
2.8697,Ba-H,2,BaH2
4.6763,Ba-C-H-O,4,BaH2(CO2)2
2.1749,Ba-C-H-O,4,BaH2(CO2)4
0.1391,Ba-C-H-O,4,BaH2(CO3)2
4.1725,Ba-Br-H-O,4,BaH2Br2O7
3.1849,Ba-C-H-O,4,BaH2C2O5
5.05,Ba-Cl-H-O,4,BaH2Cl2O
5.1843,Ba-Cl-H-O,4,BaH2Cl2O7
3.6607,Ba-H-I-O,4,BaH2I2O7
0.0,Ba-H-O,3,BaH2O3
1.9605,Ba-H-I-O,4,BaH3IO6
4.3426,Ba-Br-H-O,4,BaH4(BrO)2
3.658300000000001,Ba-H-I-O,4,BaH4(IO)2
4.2591,Ba-H-O,3,BaH4O3
4.2073,Ba-H-O,3,BaH4O3
3.9287,Ba-H-O,3,BaH4O3
3.9419,Ba-H-O,3,BaH4O3
4.7616,Ba-Br-H-O,4,BaH5BrO3
4.9758,Ba-Cl-H-O,4,BaH5ClO3
3.1456,Ba-C-H-O,4,BaH6(C2O5)2
4.1044,Ba-C-H-N-O-S,6,BaH6C2S2N2O3
3.5841000000000003,Ba-C-H-N-O-S,6,BaH6C2SNO5
2.6483,Ba-C-H-O,4,BaH6C4O7
5.297000000000001,Ba-Cl-H-O,4,BaH6Cl2O11
3.5202,Ba-H-I-O,4,BaH9IO5
3.2113,Ba-Br-H,3,BaHBr
4.2077,Ba-Br-H-O,4,BaHBrO
3.4827000000000004,Ba-Cl-H,3,BaHCl
4.8576,Ba-Cl-H-O,4,BaHClO
2.8111,Ba-H-I,3,BaHI
3.9362,Ba-H-I-O,4,BaHIO
4.7103,B-Ba-Hf-O,4,BaHf(BO3)2
4.9273,Ba-Hf-O-P,4,BaHf(PO4)2
4.6887,Ba-Hf-O-Si,4,BaHf(SiO3)3
0.0,As-Ba-Hf,3,BaHf2As
0.0,Ba-Hf-O-Sn,4,BaHf4SnO12
7.123200000000001,Ba-F-Hf,3,BaHfF6
0.7294,Ba-Hf-In-O-Sb,5,BaHfInSbO6
0.0,Ba-Hf-Mg,3,BaHfMg14
0.0,Ba-Hf-Mg-O,4,BaHfMg14O16
0.0,Ba-Hf-Mg,3,BaHfMg2
0.0,Ba-Hf-Mg,3,BaHfMg6
0.0,Ba-Hf-Mg-O,4,BaHfMg6O8
0.0,Ba-Hf-Mo,3,BaHfMo
1.2537000000000005,Ba-Hf-N,3,BaHfN2
0.6227999999999998,Ba-Hf-In-Nb-O,5,BaHfNbInO6
3.5394,Ba-Hf-O,3,BaHfO3
1.2523999999999995,Ba-Hf-S,3,BaHfS3
0.8588999999999998,Ba-Hf-S,3,BaHfS3
0.8438999999999997,Ba-Hf-S,3,BaHfS3
0.0,Ba-Hf-S,3,BaHfS3
0.8664999999999998,Ba-Hf-S,3,BaHfS3
0.0,Ba-Hf-In-O-Ti,5,BaHfTiInO6
2.6097,Ba-Hf-O-Sn-Zr,5,BaHfZrSnO6
0.0,Ba-Hg,2,BaHg
0.0,Ba-Hg,2,BaHg2
0.0,Ba-Bi-Hg,3,BaHg2Bi
0.0,Ba-Hg-Pb,3,BaHg2Pb
0.0,Ba-Hg,2,BaHg3
1.4956,As-Ba-Hg-O,4,BaHgAs2O7
2.2727,Ba-Hg-O,3,BaHgO2
0.0,Ba-Hg-Pb,3,BaHgPb
1.1569,Ba-Hg-S,3,BaHgS2
0.0,Ba-Co-Ho-O,4,BaHo(CoO3)2
2.1549,Ba-Ho-Ni-O,4,BaHo2NiO5
1.0626,Ba-Ho-O,3,BaHo2O4
3.2256,Ba-Ho-O,3,BaHo2O4
1.9437999999999995,Ba-Ho-O-Pd,4,BaHo2PdO5
0.0,Ba-Co-Ho-O,4,BaHoCo4O7
0.0,Ba-Fe-Ho-O,4,BaHoFe4O7
0.0788999999999999,Ba-Fe-Ho-O,4,BaHoFe4O7
0.0,Ba-Co-Ho-Mg-O,5,BaHoMg(CoO3)2
0.1299999999999999,Ba-Co-Ho-Mg-O,5,BaHoMg(CoO3)2
3.0488,Ba-I,2,BaI2
3.5423,Ba-Br-I,3,BaIBr
4.0263,Ba-F-I,3,BaIF
0.0,Ba-I-O,3,BaIO5
0.2350999999999998,Ba-I-O,3,BaIO5
0.151,Ba-I-O,3,BaIO5
0.0,Ba-In,2,BaIn
0.0,Ba-Cu-In-O,4,BaIn(Cu3O4)2
0.0,Ba-In,2,BaIn2
0.0,Ba-In-Ir,3,BaIn2Ir
0.0,Ba-In-Pd,3,BaIn2Pd
0.0,Ba-In-Pt,3,BaIn2Pt
0.0,Ba-In-Rh,3,BaIn2Rh
0.0,Ba-In-Pt,3,BaIn3Pt
0.0,Ba-In,2,BaIn4
0.0,Ba-In-Ir,3,BaIn4Ir
0.0,Ba-In-Ir,3,BaIn9Ir2
0.0,Ba-Co-In-O,4,BaInCo4O7
1.2735,Ba-Cu-In-Se,4,BaInCu3Se4
1.3409,Ba-Cu-F-In,4,BaInCuF7
0.0,Ba-Fe-In-O,4,BaInFe4O7
0.0,Ba-Fe-In-O-W,5,BaInFeWO6
0.0,Ba-Ga-In,3,BaInGa
0.0,Ba-Ge-In,3,BaInGe
0.0,Ba-In-O,3,BaInO3
0.0,Ba-F-Ir,3,BaIrF6
0.0,Ba-Ir-N,3,BaIrN2
0.0,Ba-Ir-O,3,BaIrO3
0.0,Ba-Co-La-O,4,BaLa(CoO3)2
0.0,Ba-Fe-La-O,4,BaLa(FeO3)2
0.0,Ba-Co-La-O,4,BaLa2(CoO3)3
3.4599,Ba-Cl-La,3,BaLa2Cl8
0.0,Ba-Co-La-S,4,BaLa2CoS5
0.4773000000000005,Ba-F-Fe-La-O,5,BaLa2Fe2O5F4
0.0,Ba-Fe-La-O,4,BaLa2Fe2O7
0.0,Ba-Fe-La-S,4,BaLa2FeS5
0.0,Ba-La-Mn-O,4,BaLa2Mn3O9
0.0,Ba-La-Mn-S,4,BaLa2MnS5
2.683,Ba-La-O,3,BaLa2O4
3.703300000000001,Ba-La-O,3,BaLa2O4
2.3421000000000003,Ba-La-O-Pd,4,BaLa2PdO5
2.4067000000000007,Ba-La-O-Pt,4,BaLa2PtO5
1.9924,Ba-La-O-Ti,4,BaLa2Ti3O10
2.0536000000000003,Ba-La-O-Ti,4,BaLa2Ti3O10
2.1038,Ba-La-O-Ti,4,BaLa2Ti3O10
0.0,Ba-Cr-La-O-Ti,5,BaLa2TiCr2O9
3.1916,Ba-La-O-Zn,4,BaLa2ZnO5
1.4565,Ba-La-S-Zn,4,BaLa2ZnS5
0.0,Ba-La,2,BaLa3
0.0,Ba-Co-La-O,4,BaLa3(CoO3)4
0.4565000000000001,Ba-La-Ni-O,4,BaLa3(NiO4)2
0.0,Ba-La-Mn-O,4,BaLa3Mn4O12
3.804499999999999,Ba-H-La-O-Sc,5,BaLa3Sc4HO12
1.8743,Ba-Cr-La-O-Ti,5,BaLa3TiCr3O12
1.8927,Ba-Cr-La-O-Ti,5,BaLa3TiCr3O12
0.0,Ba-Cu-La-O,4,BaLa4Cu5O12
0.0,Ba-La-Mn-O,4,BaLa4Mn5O15
1.9094000000000009,Ba-Cr-La-O-Ti,5,BaLa4TiCr4O15
1.6435,Ag-Ba-La-Se,4,BaLaAgSe3
1.2931,Ag-Ba-La-Te,4,BaLaAgTe3
4.4355,Al-Ba-La-O,4,BaLaAlO4
0.0,B-Ba-La,3,BaLaB12
3.2795,Ba-Cl-La,3,BaLaCl5
0.0,Ba-Co-La-O,4,BaLaCo2O5
0.0,Ba-Co-Ir-La-O,5,BaLaCoIrO6
0.0,Ba-Co-La-O-Sb,5,BaLaCoSbO6
0.0,Ba-Cr-La-Mo-O,5,BaLaCrMoO6
0.0,B-Ba-Cu-La-O,5,BaLaCuBO5
0.0,Ba-Cu-La-O-Ru,5,BaLaCuRuO6
0.2517000000000005,Ba-Eu-La-O-Sb,5,BaLaEuSbO6
1.0398000000000005,Ba-Eu-La-O-Sb,5,BaLaEuSbO6
0.0,Ba-Eu-La-O-W,5,BaLaEuWO6
0.0,Ba-Eu-La-O-Zn,5,BaLaEuZnO5
0.0,Ba-Cu-Fe-La-O,5,BaLaFe2Cu2O11
0.7285999999999992,Ba-Fe-La-O,4,BaLaFeO4
3.3009,Ba-Ga-La-O,4,BaLaGa3O7
3.9478,Ba-Ga-La-O,4,BaLaGaO4
3.0545,Ba-In-La-O,4,BaLaInO4
0.0,Ba-Co-La-Mg-O,5,BaLaMg(CoO3)2
0.0,Ba-La-Mg,3,BaLaMg14
0.0,Ba-La-Mg,3,BaLaMg6
1.0829000000000004,Ba-Bi-La-Mg-O,5,BaLaMgBiO6
0.0,Ba-La-Mg-Mn-O,5,BaLaMgMn2O6
2.6557000000000004,Ba-La-Mg-Nb-O,5,BaLaMgNbO6
0.0099,Ba-La-Mg-Ni-O-Ru,6,BaLaMgNiRuO6
0.1981000000000001,Ba-La-Mg-O-Ru,5,BaLaMgRuO6
2.9425,Ba-La-Mg-O-Ta,5,BaLaMgTaO6
0.1281999999999996,Ba-La-Mg-O-Ru-Zn,6,BaLaMgZnRuO6
0.0,Ba-La-Mn-O,4,BaLaMn2O6
0.9001999999999999,Ba-La-Mn-O,4,BaLaMn2O6
0.7082000000000006,Ba-In-La-Mn-O,5,BaLaMnInO6
0.0,Ba-In-La-Mn-O,5,BaLaMnInO6
0.3823999999999996,Ba-La-Mn-Mo-O,5,BaLaMnMoO6
0.0,Ba-La-Mn-O-Ru,5,BaLaMnRuO6
0.3209999999999997,Ba-La-Mn-O-Ru,5,BaLaMnRuO6
1.5111,Ba-La-Mn-O-Sb,5,BaLaMnSbO6
0.0,Ba-La-Mn-O-Sn,5,BaLaMnSnO6
0.0,Ba-Cr-La-Nb-O,5,BaLaNbCrO6
0.0,Ba-La-Mn-Nd-O,5,BaLaNdMn3O9
0.0,Ba-La-Ni-O-Ru,5,BaLaNiRuO6
0.0,Ba-La-Mn-O-Pr,5,BaLaPrMn3O9
0.0,Ba-La-Si,3,BaLaSi2
0.5899000000000001,Ba-Cu-La-O-Sm,5,BaLaSmCuO5
0.0,Ba-La-Mn-O-Sm,5,BaLaSmMn3O9
1.0025000000000004,Ba-La-Mn-O-Ta,5,BaLaTaMnO6
2.2668,Ba-La-O-Ta-Zn,5,BaLaTaZnO6
0.0,Ba-Cu-La-O-Ti,5,BaLaTiCuO6
1.7837999999999994,Ba-Fe-La-O-Ti,5,BaLaTiFeO6
0.3811999999999997,Ba-La-O-Ru-Zn,5,BaLaZnRuO6
0.4756,Ba-La-O-Ru-Zn,5,BaLaZnRuO6
0.0,Ba-Ge-Li-Mg,4,BaLi2(MgGe)2
0.0,Ba-Li-Mg-Si,4,BaLi2(MgSi)2
5.638199999999999,Ba-Li-Mg-O-P,5,BaLi2Mg(PO4)2
2.7197000000000005,Ba-Li-Mn-O-V,5,BaLi2MnV2O8
2.2093,Ba-Li-Ni-O,4,BaLi2NiO3
0.0,Ba-Li-Si,3,BaLi2Si
3.4693000000000005,Ba-Li-O,3,BaLi4O3
3.3976,Ba-Li-O,3,BaLi4O3
3.1339999999999995,Al-Ba-H-Li-O-P,6,BaLiAl3P2(HO7)2
2.6484,Al-Ba-H-Li-O-P,6,BaLiAl3P2(HO7)2
3.0738000000000003,Al-Ba-H-Li-O-P,6,BaLiAl3P2(HO7)2
1.9554,Al-Ba-H-Li-O-P,6,BaLiAl3P2(HO7)2
7.3161,Al-Ba-F-Li,4,BaLiAlF6
0.5928,As-Ba-Li,3,BaLiAs
4.1341,B-Ba-Li-O,4,BaLiBO3
1.9094,Ba-Ce-Li-O-Sb,5,BaLiCeSbO6
2.2721,Ba-Co-F-Li,4,BaLiCoF6
6.564299999999999,Ba-F-Li,3,BaLiF3
0.0,Ba-Ge-Li,3,BaLiGe2
2.2146,Ba-H-Li,3,BaLiH3
1.1987,Ba-H-Li,3,BaLiH3
1.1166,Ba-Bi-Hf-Li-O,5,BaLiHfBiO6
2.9506,Ba-La-Li-O-Te,5,BaLiLaTeO6
0.0,Ba-Li-Mg,3,BaLiMg14
4.3189,Al-Ba-F-Li-Mg-O-Si,7,BaLiMg2AlSi3(O5F)2
0.0,Ba-Li-Mg,3,BaLiMg6
0.5322,Ba-Li-N,3,BaLiN
0.0,Ba-Bi-Li-Nb-O,5,BaLiNbBiO6
0.0,Ba-Li-O,3,BaLiO3
0.6981999999999999,Ba-Li-P,3,BaLiP
0.9631000000000004,Ba-Li-P,3,BaLiP
3.1399,Ba-Li-O-Pr-Te,5,BaLiPrTeO6
0.0,Ba-Li-O-Ru,4,BaLiRu5O11
0.6946999999999997,Ba-Li-Sb,3,BaLiSb
0.0,Ba-Li-Si,3,BaLiSi
0.0001000000000002,Ba-Bi-Li-O-Sn,5,BaLiSnBiO6
0.0,Ba-Li-O-Sb-Tb,5,BaLiTbSbO6
0.0,Ba-Bi-Li-O-Ti,5,BaLiTi2Bi2O
1.2119999999999995,Ba-H-Li-Ni-O-V,6,BaLiV2Ni3(HO5)2
1.5942000000000005,Ba-H-Li-Ni-O-V,6,BaLiV2Ni3(HO5)2
0.0,Ba-H-Li-Ni-O-V,6,BaLiV2Ni3(HO5)2
0.0434999999999998,Ba-H-Li-Ni-O-V,6,BaLiV2Ni3(HO5)2
0.0114,Ba-H-Li-Ni-O-V,6,BaLiV2Ni3(HO5)2
0.0,Ba-Cu-Li-O-Y,5,BaLiYCu2O5
5.7451,Ba-F-Li-Zr,4,BaLiZr2F11
1.0751,Ba-Bi-Li-O-Zr,5,BaLiZrBiO6
0.0,Ba-Li-O-Zr,4,BaLiZrO3
1.3091999999999997,Ba-Co-Lu-O,4,BaLu2CoO5
0.0,Ba-Cu-Lu-O,4,BaLu2CuO5
0.0,Ba-Lu-Ni-O,4,BaLu2NiO5
3.0171,Ba-Lu-O,3,BaLu2O4
2.9254,Ba-Lu-O,3,BaLu2O4
4.830500000000001,Ba-Lu-O-Si,4,BaLu2Si3O10
0.7972999999999999,Ba-Co-Lu-O,4,BaLuCo4O7
0.0,Ba-Co-Lu-O,4,BaLuCo4O7
0.0,Ba-Fe-Lu-O,4,BaLuFe4O7
0.0,Ba-Cu-Fe-Lu-O,5,BaLuFeCuO5
0.0,Ba-Mg,2,BaMg
0.0,Ag-Ba-Mg-O,4,BaMg(AgO2)4
0.6147999999999998,Ba-Bi-Mg-O,4,BaMg(BiO2)4
1.2620999999999998,Ba-C-Mg-O,4,BaMg(CO2)2
0.0,Ba-C-Mg-O,4,BaMg(CO3)2
4.2267,Ba-C-Mg-O,4,BaMg(CO3)2
4.0848,Ba-C-Mg-O,4,BaMg(CO3)2
0.0,Ba-Co-Mg-O,4,BaMg(CoO2)4
1.6564,Ba-Fe-Mg-O,4,BaMg(FeO2)4
1.5097999999999998,Ba-Fe-Mg-O,4,BaMg(FeO2)4
0.0,Ba-Fe-Mg-S,4,BaMg(FeS2)2
0.0,Ba-Co-Cu-O-Y,5,Ba2Y2Co3CuO10
0.0,Ba-Co-O-Y,4,Ba2Y2Co4O11
0.0,Ba-Co-O-Y,4,Ba2Y2Co4O9
0.0,Ba-Co-Cu-Fe-O-Y,6,Ba2Y2FeCo2CuO10
0.9007000000000005,Ba-Fe-Mg-O-Y,5,Ba2Y2Mg(Fe2O5)2
0.6572999999999998,Ba-Fe-Mg-O-Y,5,Ba2Y2Mg(Fe2O5)2
0.9386,Ba-Fe-Mg-O-Y,5,Ba2Y2Mg(Fe2O5)2
1.2529999999999997,Ba-Fe-Mg-O-Y,5,Ba2Y2Mg(Fe2O5)2
1.4061000000000003,Ba-Fe-Mg-O-Y,5,Ba2Y2Mg(Fe2O5)2
0.1154999999999999,Ba-Mn-O-Y,4,Ba2Y2Mn4O11
0.1627,Ba-Mn-O-Y,4,Ba2Y2Mn4O11
1.6886,Ba-O-Y-Zn,4,Ba2Y2Zn8O13
0.0,Ag-Ba-O-Y,4,Ba2YAg3O8
1.3657999999999997,Ag-Ba-S-Y,4,Ba2YAg5S6
4.0621,B-Ba-Cl-O-Y,5,Ba2YB2ClO6
0.088,Ba-Bi-O-Y,4,Ba2YBi3O8
1.8237,Ba-Bi-O-Y,4,Ba2YBiO6
0.0,Ba-Co-O-Y,4,Ba2YCo3O7
0.0,Ba-Co-O-Y,4,Ba2YCo3O8
0.0,Ba-Co-Cu-O-Y,5,Ba2YCoCu2O7
0.0078000000000004,Ba-Cr-O-Y,4,Ba2YCr3O7
0.6379000000000001,Ba-Cr-O-Y,4,Ba2YCr3O7
0.7131999999999996,Ba-Cr-O-Y,4,Ba2YCr3O7
0.0,Ba-Cr-O-Y,4,Ba2YCr3O8
0.0,Ba-Cu-Hg-O-Y,5,Ba2YCu2HgO7
0.0,Ba-Cu-O-Pb-Y,5,Ba2YCu3(PbO4)2
0.0,Ba-Cu-F-O-Y,5,Ba2YCu3O6F
0.0,Ba-Cu-O-Y,4,Ba2YCu3O7
0.0,Ba-Cu-O-Y,4,Ba2YCu3O8
0.0,Ba-Cu-O-Pb-Y,5,Ba2YCu3PbO7
0.0,Ba-Cu-S-Y,4,Ba2YCu3S7
0.0,Ba-Cu-O-S-Y,5,Ba2YCu3SO6
0.0,Ba-Cu-O-Y,4,Ba2YCuO5
6.9432,Ba-F-Y,3,Ba2YF7
0.0,Ba-Fe-O-Y,4,Ba2YFe3O8
0.0,Ba-Ir-O-Y,4,Ba2YIrO6
0.0,Ba-Cu-Mg-O-Y,5,Ba2YMg(CuO2)4
2.3589,Ba-Bi-Mg-O-Y,5,Ba2YMgBiO6
1.7313,Ba-Bi-Mg-O-Y,5,Ba2YMgBiO6
0.8022,Ba-Bi-Mg-O-Y,5,Ba2YMgBiO6
0.0,Ba-Co-Mg-O-Y,5,Ba2YMgCo3O8
0.0,Ba-Cu-Mg-O-Y,5,Ba2YMgCu3O7
0.0,Ba-Cu-Mg-S-Y,5,Ba2YMgCu3S7
0.2307000000000001,Ba-Fe-Mg-O-Y,5,Ba2YMgFe3O8
0.0,Ba-Fe-Mg-O-Y,5,Ba2YMgFe3O8
0.4988999999999999,Ba-Fe-Mg-O-Y,5,Ba2YMgFe3O8
0.0,Ba-Mg-Mn-O-Tl-Y,6,Ba2YMgMn2TlO7
0.8718000000000004,Ba-Mg-Mn-O-Tl-Y,6,Ba2YMgMn2TlO7
0.0,Ba-Mg-Mn-O-Y,5,Ba2YMgMn3O8
0.0,Ba-Mg-Nb-O-Y,5,Ba2YMgNbO6
0.0,Ba-Mg-Ni-O-Y,5,Ba2YMgNi3O8
0.0,Ba-Mg-O-Ru-Y,5,Ba2YMgRuO6
0.5110999999999999,Ba-Mg-O-Sb-Y,5,Ba2YMgSbO6
2.5044,Ba-Mg-O-Sb-Y,5,Ba2YMgSbO6
0.0,Ba-Cu-Mg-O-Tl-Y,6,Ba2YMgTlCu2O7
0.0,Ba-Mn-O-Tl-Y,5,Ba2YMn2TlO7
0.0,Ba-Mn-O-Y,4,Ba2YMn3O7
0.1113999999999997,Ba-Mn-O-Y,4,Ba2YMn3O7
0.0796999999999998,Ba-Mn-O-Y,4,Ba2YMn3O7
0.0,Ba-Mn-O-Y,4,Ba2YMn3O8
0.1198999999999999,Ba-Mn-O-Y,4,Ba2YMn3O8
0.0,Ba-Mo-O-Y,4,Ba2YMo3O8
0.0,Ba-Mo-O-Y,4,Ba2YMoO6
2.8514,Ba-Nb-O-Y,4,Ba2YNbO6
0.0,Ba-Ni-O-Y,4,Ba2YNi3O7
0.0,Ba-Ni-O-Y,4,Ba2YNi3O8
0.0550999999999999,Ba-O-Os-Y,4,Ba2YOsO6
3.4919999999999995,Ba-O-Pa-Y,4,Ba2YPaO6
0.0,Ba-O-Re-Y,4,Ba2YReO6
0.0903,Ba-O-Ru-Y,4,Ba2YRuO6
0.0,Ba-O-Sb-Y,4,Ba2YSb3O8
0.0,Ba-O-Sb-Y,4,Ba2YSbO6
3.5377,Ba-O-Sb-Y,4,Ba2YSbO6
0.0,Ba-O-Sn-Y,4,Ba2YSn3O7
0.0,Ba-O-Sn-Y,4,Ba2YSn3O8
3.4639,Ba-O-Ta-Y,4,Ba2YTaO6
3.362,Ba-O-Ta-Y,4,Ba2YTaO6
0.0,Ba-O-Ti-Tl-Y,5,Ba2YTi2TlO7
0.0,Ba-O-Ti-Y,4,Ba2YTi3O7
0.0,Ba-O-Ti-Y,4,Ba2YTi3O8
0.0,Ba-Co-O-Tl-Y,5,Ba2YTlCo2O7
0.0,Ba-Cr-O-Tl-Y,5,Ba2YTlCr2O7
0.0,Ba-Cu-O-Tl-Y,5,Ba2YTlCu2O7
0.0,Ba-Fe-O-Tl-Y,5,Ba2YTlFe2O7
0.2570999999999994,Ba-Ni-O-Tl-Y,5,Ba2YTlNi2O7
0.0,Ba-O-Sn-Tl-Y,5,Ba2YTlSn2O7
0.0,Ba-O-Tl-V-Y,5,Ba2YTlV2O7
0.0,Ba-O-Tl-W-Y,5,Ba2YTlW2O7
0.8651999999999997,Ba-O-U-Y,4,Ba2YUO6
0.0,Ba-O-V-Y,4,Ba2YV3O7
0.0,Ba-O-V-Y,4,Ba2YV3O8
0.0,Ba-O-W-Y,4,Ba2YW3O7
0.0,Ba-O-W-Y,4,Ba2YW3O8
0.0,Ba-O-Y-Zr,4,Ba2YZrO6
0.0,Ba-Zn,2,Ba2Zn
1.569,Ba-H-O-Zn,4,Ba2Zn(HO)6
4.3544,Ba-Cl-F-Zn,4,Ba2Zn2ClF7
0.0,Ba-Cr-Ga-O-Sn-Zn,6,Ba2Zn2Cr7Ga2(SnO11)2
0.1176000000000003,As-Ba-O-Zn,4,Ba2Zn3(AsO)2
0.4140000000000001,Ba-O-P-Zn,4,Ba2Zn3(PO)2
4.3453,Ba-F-Zn,3,Ba2Zn3F10
4.0505,Ba-F-Zn,3,Ba2Zn7F18
1.6140999999999996,Ag-Ba-O-Se-Zn,5,Ba2ZnAg2(SeO)2
0.6404000000000001,As-Ba-Zn,3,Ba2ZnAs2
0.0823999999999998,Ba-Bi-Zn,3,Ba2ZnBi2
0.0,Ba-Cd-Zn,3,Ba2ZnCd
4.732399999999999,Ba-F-Zn,3,Ba2ZnF6
3.1063,Ba-Ge-O-Zn,4,Ba2ZnGe2O7
0.0,Ba-Hg-Zn,3,Ba2ZnHg
0.0,Ba-In-Zn,3,Ba2ZnIn
2.3852,Ba-Mo-O-Zn,4,Ba2ZnMoO6
0.4771000000000001,Ba-N-Zn,3,Ba2ZnN2
2.6704,Ba-O-Zn,3,Ba2ZnO3
0.0,Ba-O-Zn,3,Ba2ZnO6
0.0,Ba-O-Os-Zn,4,Ba2ZnOsO6
0.0,Ba-F-P-Zn,4,Ba2ZnP2F
0.0,Ba-O-Re-Zn,4,Ba2ZnReO6
0.2922000000000002,Ba-Sb-Zn,3,Ba2ZnSb2
0.0,Ba-F-Sb-Zn,4,Ba2ZnSb2F
4.0027,Ba-O-Si-Zn,4,Ba2ZnSi2O7
0.4443999999999999,Ba-O-Te-Zn,4,Ba2ZnTeO6
3.3679,Ba-O-W-Zn,4,Ba2ZnWO6
3.7062,Ba-O-Zr,3,Ba2Zr7O16
0.0,Ba-In-O-Zr,4,Ba2ZrInO6
2.9788,Ba-O-Zr,3,Ba2ZrO4
0.0,Ba-O-Zr,3,Ba2ZrO6
0.6025,Ba-S-Zr,3,Ba2ZrS4
3.6894,Ba-O-Sn-Zr,4,Ba2ZrSnO6
2.2161,Ba-O-Ti-Zr,4,Ba2ZrTiO6
0.0,Ba-O-U-Zr,4,Ba2ZrUO6
0.0,Ba-O-W-Zr,4,Ba2ZrWO6
0.0,Al-Ba-Ge,3,Ba3(AlGe)2
0.0,Al-Ba-Si,3,Ba3(AlSi)2
0.0,Al-Ba-Sn,3,Ba3(AlSn)2
3.9060000000000006,As-Ba-O,3,Ba3(AsO4)2
4.1693,B-Ba-O,3,Ba3(BO3)2
3.1069,B-Ba-O,3,Ba3(BO3)2
0.8849,Ba-Bi-N,3,Ba3(BiN2)2
2.2886,Ba-Br-O,3,Ba3(BrO)2
0.0,As-Ba-Cd,3,Ba3(CdAs2)2
0.0,Ba-Cd-Sb,3,Ba3(CdSb2)2
2.4432,Ba-Cl-O,3,Ba3(ClO)2
0.0,Ba-Co-N,3,Ba3(CoN2)2
0.0,Ba-Cr-N,3,Ba3(CrN2)2
0.0,Ba-Fe-N,3,Ba3(FeN2)2
0.0,Ba-Ge-Ir,3,Ba3(Ge4Ir)4
0.0,Ba-Ge-Rh,3,Ba3(Ge4Rh)4
0.0,Ba-Ge-N,3,Ba3(GeN)2
1.2161,Ba-H-Ir,3,Ba3(H6Ir)2
3.1535,Ba-H-Ir,3,Ba3(H6Ir)2
0.9307000000000004,Ba-In-N,3,Ba3(InN2)2
0.0,Ba-Ir-N,3,Ba3(IrN2)2
0.0,As-Ba-Li,3,Ba3(LiAs)4
0.0,Ba-Bi-Li,3,Ba3(LiBi)4
0.0,Ba-Li-Sb,3,Ba3(LiSb)4
0.0,Ba-Li-Sn,3,Ba3(LiSn2)4
0.0,Ba-Mn-N,3,Ba3(MnN2)2
0.0,Ba-Mo-N,3,Ba3(MoN2)2
0.0,Ba-N-Nb,3,Ba3(NbN2)2
0.0,Ba-N-Os,3,Ba3(OsN2)2
5.1422,Ba-O-P,3,Ba3(PO4)2
2.0034,Ba-P-S,3,Ba3(PS4)2
0.0,Ba-N-Ru,3,Ba3(RuN2)2
0.0,Ba-N-Ta,3,Ba3(TaN2)2
0.0,Ba-N-Ti,3,Ba3(TiN2)2
0.0,Ba-N-V,3,Ba3(VN2)2
0.0,Ba-N-W,3,Ba3(WN2)2
0.0,As-Ba-Zn,3,Ba3(ZnAs2)2
0.0,Ac-Ba,2,Ba3Ac
0.0,Al-Ba-Ga,3,Ba3Al3Ga2
1.7764999999999995,Al-Ba-N,3,Ba3Al3N5
0.0,Al-Ba,2,Ba3Al5
0.3069000000000002,Al-Ba-N,3,Ba3AlN3
0.0,As-Ba,2,Ba3As2
0.0,As-Ba-N,3,Ba3AsN
0.0,As-Ba-P,3,Ba3AsP
2.0126,B-Ba-N,3,Ba3B3N5
1.5233,As-B-Ba-O,4,Ba3BAsO3
0.1975000000000002,B-Ba-N,3,Ba3BN3
1.4667000000000003,B-Ba-O-P,4,Ba3BPO3
3.3373,B-Ba-O-P,4,Ba3BPO7
3.6139,B-Ba-Be-H-O,5,Ba3Be2B5HO13
0.0,Ba-Be-Ir-O,4,Ba3BeIr2O9
0.0,Ba-Bi,2,Ba3Bi
0.0,Ba-Bi,2,Ba3Bi2
5.1102,Ba-Bi-F,3,Ba3Bi2F12
0.9866,Ba-Bi-I-O,4,Ba3Bi2I2O5
0.4466000000000001,Ba-Bi-O-Ru,4,Ba3Bi2RuO9
0.0,As-Ba-Bi,3,Ba3BiAs
0.0,Ba-Bi-Ir-O,4,Ba3BiIr2O9
0.0643000000000002,Ba-Bi-Ir-O-Ru,5,Ba3BiIrRuO9
0.0,Ba-Bi-N,3,Ba3BiN
0.6466000000000003,Ba-Bi-N,3,Ba3BiN
0.0,Ba-Bi-P,3,Ba3BiP
0.0,Ba-Bi-O-Pb,4,Ba3BiPb2O9
0.0,Ba-Bi-O-Ru,4,Ba3BiRu2O9
0.0,Ba-Bi-Sb,3,Ba3BiSb
0.0,Ba-C-N,3,Ba3CN3
0.0,Ba-Ca,2,Ba3Ca
1.565,Ba-Ca-N-Si,4,Ba3Ca2(SiN3)2
0.2503999999999999,Ba-Bi-Ca-O,4,Ba3CaBi2O9
0.0,Ba-Ca-Ir-O,4,Ba3CaIr2O9
0.0,Ba-Ca-Cu-La-O,5,Ba3CaLa2(Cu3O7)2
0.0,Ba-Ca-Cu-La-O,5,Ba3CaLa2Cu6O13
2.6460000000000004,Ba-Ca-Nb-O,4,Ba3CaNb2O9
2.11,Ba-Ca-O,3,Ba3CaO4
0.0,Ba-Ca-O-Ru,4,Ba3CaRu2O9
3.1711000000000005,Ba-Ca-O-Sb,4,Ba3CaSb2O9
3.2257,Ba-Ca-O-Ta,4,Ba3CaTa2O9
0.0,Ba-Ca-O-Ti,4,Ba3CaTi3O8
3.146,Ba-Ca-O-Ti-W,5,Ba3CaTiWO9
2.8589,Ba-Cd-Ge-O,4,Ba3Cd(GeO4)2
3.587,Ba-Cd-O-Si,4,Ba3Cd(SiO4)2
0.0,Ba-Cd-Hg,3,Ba3CdHg10
0.0,Ba-Cd-Ir-O,4,Ba3CdIr2O9
0.0,Ba-Ce,2,Ba3Ce
0.0,Ba-Ce-O,3,Ba3Ce2O6
0.0,Ba-Ce-Ir-O,4,Ba3CeIr2O9
0.0,Ba-Ce-O-Ru,4,Ba3CeRu2O9
0.7976999999999999,Ba-C-Co-N,4,Ba3Co(CN)3
0.0,Ba-Co-O,3,Ba3Co10O17
0.0,Ba-Co-O-W,4,Ba3Co2WO9
0.0,Ba-Co-N,3,Ba3Co3N5