eg,chemsys,nelements,formula
0.0,Ba-Mg-Ti,3,BaMg6Ti
0.0,Ba-Mg-O-Ti,4,BaMg6TiO8
0.0,Ba-Mg-V,3,BaMg6V
0.6301999999999994,Ba-Mg-O-V,4,BaMg6VO8
0.0,Ba-Mg-O-V,4,BaMg6VO8
0.0,Ba-Mg-W,3,BaMg6W
0.0,Ba-Mg-Zn,3,BaMg6Zn
0.7087000000000003,Ba-Mg-O-Zn,4,BaMg6ZnO8
0.0091999999999998,Ba-Mg-O-Zn,4,BaMg6ZnO8
0.0,Ba-Mg-Zr,3,BaMg6Zr
0.0,Ba-Mg,2,BaMg7
0.0,Ag-Ba-Mg-O,4,BaMgAgO2
0.0,Al-Ba-H-Mg-O-P,6,BaMgAl3P2(HO7)2
0.5051999999999999,Al-Ba-H-Mg-O-P,6,BaMgAl3P2(HO7)2
0.0297999999999998,Al-Ba-H-Mg-O-P,6,BaMgAl3P2(HO7)2
0.0,Ba-Bi-Mg-O,4,BaMgBi2O5
0.8410000000000002,Ba-Bi-Mg-O,4,BaMgBi2O5
0.0,Ba-Co-Mg-O,4,BaMgCoO3
0.0,Ba-Cr-Mg-O,4,BaMgCr4O8
0.0,Ba-Cu-Mg-O,4,BaMgCu3O4
0.0,Ba-Cu-Mg-O,4,BaMgCuO2
0.0,Ba-Cu-Mg-S,4,BaMgCuS2
7.0958,Ba-F-Mg,3,BaMgF4
6.8005,Ba-F-Mg,3,BaMgF4
0.0,Ba-Ge-Mg,3,BaMgGe
2.3007,Ba-H-Mg,3,BaMgH4
0.0,Ba-In-Mg,3,BaMgIn3
0.0,Ba-Mg-Mn-O,4,BaMgMn2O5
0.0,Ba-Mg-Mn-O,4,BaMgMn4O8
0.7542999999999997,Ba-Mg-Mn-O,4,BaMgMn4O8
0.0,Ba-Mg-Mn-O,4,BaMgMnO3
0.2219000000000002,Ba-Mg-Mn-O,4,BaMgMnO3
0.9175,Ag-Ba-Mg-Mn-O-V,6,BaMgMnV2(AgO4)2
0.4034,Ag-Ba-Mg-Mn-O-V,6,BaMgMnV2(AgO4)2
0.0,Ba-Mg-Mo-O-P,5,BaMgMo(PO4)2
0.0,Ba-Mg-Mo-O,4,BaMgMoO3
0.9044,Ba-Mg-Ni-O,4,BaMgNiO3
3.1592,Ba-Mg-O,3,BaMgO2
0.0,Ba-Mg-Os,3,BaMgOs2
0.0,Ba-Mg-Pb,3,BaMgPb
0.1257000000000001,Ba-Mg-Si,3,BaMgSi
0.0,Ba-Mg-Si,3,BaMgSi
0.0,Ba-Mg-Sn,3,BaMgSn
1.8494,Ba-Mg-O-Te,4,BaMgTe2O7
0.0,B-Ba-Mg-O-Ti,5,BaMgTi(BO3)2
0.0,Ba-Mg-O-Ti,4,BaMgTi4O8
0.8491,Ba-Mg-O-Ti,4,BaMgTiO3
0.0,Ba-Mg-O-Ti,4,BaMgTiO3
0.9263000000000003,Ba-Mg-O-Ti,4,BaMgTiO3
1.3722,Ba-H-Mg-Ni-O-V,6,BaMgV2Ni3(HO5)2
0.0,Ba-H-Mg-Ni-O-V,6,BaMgV2Ni3(HO5)2
0.9439000000000002,Ba-Mg-O-V,4,BaMgV4O8
0.0,Ba-Mg-O-V,4,BaMgVO3
1.4749,Ba-Fe-Mg-O-Zn,5,BaMgZn(FeO2)4
0.0,Ba-Mn,2,BaMn28
0.9487000000000004,Ba-Fe-Mn-O,4,BaMn2Fe4O11
0.0232999999999998,Ba-Fe-Mn-O-Si,5,BaMn2FeSi2O9
0.0,Ba-Mn-O,3,BaMn2O3
0.0,Ba-Mn-O,3,BaMn2O5
0.0,Ba-Mn-O,3,BaMn2O8
1.6758,Ba-Mn-O,3,BaMn2O8
1.1844,Ba-Mn-O-P,4,BaMn2P2O9
0.0,Ba-Mn-O-Ru,4,BaMn2Ru4O11
0.0,Ba-Mn-O-Tl,4,BaMn2TlO6
0.6949999999999998,Ba-Fe-Mn-O,4,BaMn3Fe3O11
0.0,Ba-Mn-O,3,BaMn3O6
0.0,Al-Ba-Mn-O,4,BaMn4AlO7
0.0,Ba-Mn-O,3,BaMn4O7
0.0,Ba-Mn-O,3,BaMn4O8
0.0,Ba-Mn-O-Zn,4,BaMn4ZnO8
0.0,Ba-Mn-O,3,BaMn5O11
0.0,Ba-Mn-O,3,BaMn6O12
0.0,Al-Ba-Cu-Mn-O,5,BaMnAlCuO5
0.0,Ba-Bi-Mn,3,BaMnBi2
4.0654,Ba-C-F-Mn-O,5,BaMnCO3F2
2.3195,Ba-F-Mn,3,BaMnF4
1.4957,Ba-F-Mn,3,BaMnF5
0.0,Ba-Ge-Mn,3,BaMnGe
0.0,Ba-In-Mn-O-W,5,BaMnInWO6
0.0,Ba-Mn-N,3,BaMnN2
0.0,Ba-Mn-Nb-O,4,BaMnNb2O6
1.8824,Ba-Mn-Nb-O,4,BaMnNb4O12
0.0,Ba-Mn-O,3,BaMnO3
1.8948,Ba-Mn-O,3,BaMnO3
0.8952999999999998,Ba-Mn-O,3,BaMnO3
1.7073,Ba-Mn-O,3,BaMnO3
0.4982999999999999,Ba-Mn-O,3,BaMnO3
0.8679000000000001,Ba-Mn-O,3,BaMnO3
0.5058,Ba-Mn-O,3,BaMnO4
0.0,Ba-F-Mn-O,4,BaMnOF5
0.9484,Ba-F-Mn-O-P,5,BaMnP(O2F)2
3.4437,Ba-Mn-O-P,4,BaMnP2O7
0.0,Ba-Mn-S,3,BaMnS2
0.0,Ba-Mn-Sb,3,BaMnSb2
0.0,Ba-F-Mn-Sb,4,BaMnSbF
0.0,Ba-Mn-Si,3,BaMnSi2
1.6954000000000002,Ba-Mn-O-Sn-W,5,BaMnSnWO6
2.1259,Ag-Ba-Mn-O-V,5,BaMnV2(AgO4)2
1.7041999999999995,Ba-Mo-O-P,4,BaMo(PO4)2
1.5921000000000003,Ba-Mo-O-P,4,BaMo(PO4)2
3.0078,Ba-Mo-O-P,4,BaMo2(PO6)2
1.7998000000000005,Ba-Mo-O-P,4,BaMo4(PO8)2
0.0160999999999997,Ba-Mo-O,3,BaMo4O7
0.4629000000000003,Ba-Mo-O,3,BaMoO2
0.0,Ba-Mo-O,3,BaMoO3
3.7927,Ba-Mo-O,3,BaMoO4
0.0,Ba-Mo-P,3,BaMoP2
0.0,Ba-N,2,BaN
0.0,Ba-N,2,BaN2
4.0787,Ba-Cl-N,3,BaN3Cl
3.8146,Ba-N,2,BaN6
0.0228999999999999,Ba-N-O,3,BaN6O
0.0,As-Ba-Fe-Na,4,BaNa(FeAs)4
4.1731,Ba-Na-O-Si,4,BaNa2(SiO3)2
3.1752,Ba-F-Fe-Na,4,BaNa2Fe4F12
4.8691,Ba-Mg-Na-O-P,5,BaNa2Mg(PO4)2
4.7985,Ba-Mg-Na-O-P,5,BaNa2Mg(PO4)2
1.5152,Ba-Na-O,3,BaNa2O2
1.6082999999999998,Ba-Na-O,3,BaNa2O2
0.0,Ba-Na-Pb,3,BaNa2Pb
0.0,Ba-Na-Sn,3,BaNa2Sn
0.0,Ba-Cu-Na-O-V,5,BaNa2V2CuO8
0.0,Ba-Na-O-P,4,BaNa3(PO4)2
3.6661,Ba-C-Na-O-P,5,BaNa3PCO7
3.7745,Ba-C-Na-O-P,5,BaNa3PCO7
1.4794999999999998,Ba-Na-O,3,BaNa4O3
1.3922,Ba-Na-O,3,BaNa4O3
1.5878,Ba-Na-O,3,BaNa6O4
0.2049,Ba-C-Na-O-Th,5,BaNa6Th(CO4)6
3.6487,B-Ba-Na-O,4,BaNaBO3
0.2355,Ba-Bi-Na,3,BaNaBi
2.2936,Ba-Bi-Na-O-W,5,BaNaBiWO6
0.0,Ba-Ca-Mn-Na-O,5,BaNaCaMnO6
1.6438,Ba-Bi-Ce-Na-O,5,BaNaCeBiO6
0.0,Ba-Ce-Fe-Na-O,5,BaNaCeFeO6
0.0,Ba-Ce-Mn-Na-O,5,BaNaCeMnO6
2.0255999999999994,Ba-Ce-Na-Nb-O,5,BaNaCeNbO6
1.8811000000000004,Ba-Ce-Na-O-Sb,5,BaNaCeSbO6
0.0,Ba-Ce-Na-O-W,5,BaNaCeWO6
0.0,Ba-Br-Cu-Na-O,5,BaNaCuBrO2
0.0,Ba-Cl-Cu-Na-O,5,BaNaCuClO2
2.8635,Ba-Dy-Na-O-W,5,BaNaDyWO6
0.0,Ba-Eu-Fe-Na-O,5,BaNaEuFeO6
0.0,Ba-Eu-Mn-Na-O,5,BaNaEuMnO6
0.0,Ba-Eu-Na-O-Se,5,BaNaEuSeO6
0.0,Ba-Eu-Na-O-W,5,BaNaEuWO6
2.8189,Ba-Gd-Na-O-W,5,BaNaGdWO6
1.5042000000000002,Ba-H-Na-Pd,4,BaNaH3Pd
3.2231,Ba-H-Ir-Na,4,BaNaH6Ir
1.0663,Ba-Bi-Hf-Na-O,5,BaNaHfBiO6
0.0,Ba-Hg-Na,3,BaNaHg2
0.0,Ba-Fe-La-Na-O,5,BaNaLaFeO6
0.0,Ba-La-Mn-Na-O,5,BaNaLaMnO6
2.0473000000000003,Ba-La-Na-O-Se,5,BaNaLaSeO6
2.9179,Ba-La-Na-O-W,5,BaNaLaWO6
0.0,Ba-Mg-Na,3,BaNaMg14
0.0,Ba-Mg-Na,3,BaNaMg6
0.0,Ba-Bi-Mn-Na-O,5,BaNaMnBiO6
0.5161,Ba-N-Na,3,BaNaN
0.6228000000000002,Ba-N-Na,3,BaNaN
0.0,Ba-Bi-Na-Nb-O,5,BaNaNbBiO6
0.0,Ba-Fe-Na-Nd-O,5,BaNaNdFeO6
0.0,Ba-Mn-Na-Nd-O,5,BaNaNdMnO6
1.8961,Ba-Na-Nd-O-Se,5,BaNaNdSeO6
2.8256999999999994,Ba-Na-Nd-O-W,5,BaNaNdWO6
0.8555000000000001,Ba-Na-P,3,BaNaP
4.8274,Ba-H-N-Na-O-P,6,BaNaP3H3(NO2)3
4.174,Ba-Na-O-P,4,BaNaPO4
4.6234,Ba-Na-O-P,4,BaNaPO4
0.0,Ba-Bi-Na-O-Pr,5,BaNaPrBiO6
0.0,Ba-Fe-Na-O-Pr,5,BaNaPrFeO6
0.0,Ba-Na-Nb-O-Pr,5,BaNaPrNbO6
0.0,Ba-Na-O-Pr-Sb,5,BaNaPrSbO6
1.9163000000000008,Ba-Na-O-Pr-Se,5,BaNaPrSeO6
2.8167,Ba-Na-O-Pr-W,5,BaNaPrWO6
3.0615,Ba-Na-O-Pr-W,5,BaNaPrWO6
0.4228999999999998,Ba-Na-Sb,3,BaNaSb
1.3942999999999994,Ba-Na-O-Sb-W,5,BaNaSbWO6
3.8128,B-Ba-Na-O-Sc,5,BaNaSc(BO3)2
4.5947000000000005,Ba-Na-O-Sc-Si,5,BaNaScSi2O7
0.0,Ba-Mn-Na-O-Sm,5,BaNaSmMnO6
1.8646000000000005,Ba-Na-O-Se-Sm,5,BaNaSmSeO6
2.8395,Ba-Na-O-Sm-W,5,BaNaSmWO6
0.0,Ba-Na-Sn,3,BaNaSn
0.0,Ba-Bi-Na-O-Sn,5,BaNaSnBiO6
0.0,Ba-Mn-Na-O-Sr,5,BaNaSrMnO6
0.0,Ba-Bi-Na-O-Tb,5,BaNaTbBiO6
2.8478000000000003,Ba-Na-O-Tb-W,5,BaNaTbWO6
1.5650999999999995,Ba-Na-Nb-O-Ti,5,BaNaTiNbO6
0.0,Ba-Na-Tl,3,BaNaTl2
3.335,B-Ba-Na-O-Y,5,BaNaY(BO3)2
0.0,Ba-Na-O-P-Y,5,BaNaY2(PO4)2
2.8552,Ba-Na-O-W-Y,5,BaNaYWO6
1.0145,Ba-Bi-Na-O-Zr,5,BaNaZrBiO6
1.7345000000000002,Ba-Fe-Nb-O,4,BaNb2(FeO3)4
2.2153,Ba-Bi-Nb-O,4,BaNb2Bi2O9
0.0,Ba-Cr-Nb-O,4,BaNb2CrO6
1.0839,Ba-Fe-Nb-O,4,BaNb2Fe2O9
0.0,Ba-Fe-Nb-O,4,BaNb2Fe2O9
1.7859,Ba-Nb-O,3,BaNb2O6
2.1233,Ba-Nb-O-V,4,BaNb2V2O11
1.4483,Ba-N-Nb-O,4,BaNb3NO7
1.5397999999999998,Ba-N-Nb-O,4,BaNb3NO7
0.6506999999999998,Ba-N-Nb-O,4,BaNb3NO7
1.2963000000000002,Ba-N-Nb-O,4,BaNb3NO7
0.0,Ba-Nb-O,3,BaNb3O6
1.8562,Ba-Bi-Nb-O-Pb,5,BaNb4Bi4PbO18
1.4187999999999998,Ba-Cr-Nb-O,4,BaNb4CrO12
2.6601,Ba-Nb-O,3,BaNb4O11
0.0,Ba-Nb-O,3,BaNb4O14
0.0,Ba-Nb-O,3,BaNb4O6
0.0,Ba-Nb-O,3,BaNb5O8
1.4865000000000002,Ba-H-Nb-O,4,BaNb6HO16
1.1974,Ba-Nb-O,3,BaNb6O17
0.0,Ba-Nb-O,3,BaNb7O9
2.673,Ba-In-Nb-O-Sn,5,BaNbInSnO6
0.0,Ba-In-Nb-O-W,5,BaNbInWO6
0.0,Ba-N-Nb-O,4,BaNbNO2
0.0,Ba-Nb-O,3,BaNbO3
0.0,Ba-Nb-S,3,BaNbS3
0.0,Ba-Nb-Tc,3,BaNbTc2
0.0,Ba-Nd,2,BaNd
0.0,Ba-Co-Nd-O,4,BaNd(CoO3)2
0.0,Ba-Co-Nd-O,4,BaNd(CoO3)4
0.0,Ba-Fe-Nd-O,4,BaNd(FeO3)2
0.0,Ba-Fe-Nd-O,4,BaNd(FeO3)4
0.0,Ba-Nd-Ni-O,4,BaNd(NiO3)4
3.6389,Ba-Be-Nd-O,4,BaNd2BeO5
1.4058999999999997,Ba-Co-Nd-O,4,BaNd2CoO5
0.0,Ba-Co-Nd-S,4,BaNd2CoS5
0.5842,Ba-Cu-Nd-O,4,BaNd2CuO5
0.0,Ba-Fe-Nd-S,4,BaNd2FeS5
0.9382999999999996,Ba-Mg-Mn-Nd-O,5,BaNd2MgMn2O7
0.0868999999999999,Ba-Mg-Mn-Nd-O,5,BaNd2MgMn2O7
0.0,Ba-Mn-Nd-O,4,BaNd2Mn2O7
0.0,Ba-Mn-Nd-S,4,BaNd2MnS5
1.9985000000000004,Ba-Nd-Ni-O,4,BaNd2NiO5
3.0973,Ba-Nd-O,3,BaNd2O4
2.2191,Ba-Nd-O-Pd,4,BaNd2PdO5
2.5077000000000003,Ba-Nd-O-Pt,4,BaNd2PtO5
1.9244,Ba-Nd-O-Ti,4,BaNd2Ti3O10
3.056,Ba-Nd-O-Zn,4,BaNd2ZnO5
1.1433000000000004,Ba-Nd-S-Zn,4,BaNd2ZnS5
0.0,Ba-Co-Nd-O,4,BaNd3(CoO3)4
1.6623,Ag-Ba-Nd-S,4,BaNdAgS3
0.0,Ba-Co-Nd-O,4,BaNdCo2O5
0.0,Ba-Cr-Nd-O,4,BaNdCr4O12
1.922,Ba-Cr-Nd-O-Sn,5,BaNdCrSnO6
0.0,B-Ba-Cu-Nd-O,5,BaNdCuBO5
0.5138999999999996,Ba-Cu-Nd-Te,4,BaNdCuTe3
0.0,Ba-Dy-Fe-Nd-O,5,BaNdDyFeO6
2.0617,Ba-Dy-Mn-Nd-O,5,BaNdDyMnO6
0.0,Ba-Bi-Eu-Nd-O,5,BaNdEuBiO6
0.0,Ba-Eu-Fe-Nd-O,5,BaNdEuFeO6
0.5202,Ba-Eu-Nb-Nd-O,5,BaNdEuNbO6
0.1223,Ba-Eu-Nb-Nd-O,5,BaNdEuNbO6
0.1501999999999999,Ba-Eu-Nd-O-Sb,5,BaNdEuSbO6
0.6954000000000002,Ba-Eu-Nd-O-Sb,5,BaNdEuSbO6
0.0,Ba-Eu-Nd-O-V,5,BaNdEuVO6
0.0565999999999999,Ba-Eu-Nd-O-V,5,BaNdEuVO6
0.1989999999999998,Ba-Eu-Nd-O-W,5,BaNdEuWO6
0.0,Ba-Eu-Nd-O-W,5,BaNdEuWO6
0.0,Ba-Fe-Nd-O,4,BaNdFe2O5
0.9089,Ba-Fe-Nd-O,4,BaNdFe2O5
0.0,Ba-Co-Fe-Nd-O,5,BaNdFeCoO6
2.0832000000000006,Ba-Fe-Nd-O-Sn,5,BaNdFeSnO6
3.7355,Ba-Ga-Nd-O,4,BaNdGaO4
0.0,Ba-Hf-Nd-O,4,BaNdHf4O12
0.0,Ba-Hf-Nd-O-Zr,5,BaNdHfZrO6
2.5713,Ba-In-Nd-O,4,BaNdInO4
0.0,Ba-Co-Mg-Nd-O,5,BaNdMg(CoO3)2
0.0,Ba-Co-Mg-Nd-O,5,BaNdMgCo2O5
0.5901999999999994,Ba-Co-Mg-Nd-O,5,BaNdMgCo2O5
0.0,Ba-Mg-Mn-Nd-O,5,BaNdMgMn2O5
0.0,Ba-Mg-Mn-Nd-O,5,BaNdMgMn2O6
0.0,Ba-Mn-Nd-O,4,BaNdMn2O5
0.0,Ba-Mn-Nd-O,4,BaNdMn2O6
0.0,Ba-Mn-Nd-O,4,BaNdMn4O12
0.0,Ba-Co-Mn-Nd-O,5,BaNdMnCoO5
0.0,Ba-Co-Mn-Nd-O,5,BaNdMnCoO6
0.0,Ba-Mn-Nd-O-Sn,5,BaNdMnSnO6
0.0,Ba-Nb-Nd-O,4,BaNdNb4O12
0.3204000000000002,Ba-Bi-Nd-Ni-O,5,BaNdNiBiO6
2.6253999999999995,Ba-Nd-Ni-O-Sb,5,BaNdNiSbO6
0.0,Ba-Nd-O,3,BaNdO3
0.0,Ba-Nd-O-Ti,4,BaNdTi4O12
0.0,Ba-Nd-O-V,4,BaNdV4O12
0.0,Ba-Nd-O-Zr,4,BaNdZr2O6
0.0,Ba-Nd-O-Zr,4,BaNdZr4O12
2.8416,As-Ba-Ni-O,4,BaNi2(AsO4)2
0.0,Ba-Ni-O-P,4,BaNi2(PO4)2
0.9855999999999998,Ba-Ni-O,3,BaNi4O7
0.0,As-Ba-Ni,3,BaNi9As5
0.0,Ba-Ni-P,3,BaNi9P5
0.0,Ba-Br-C-Ni,4,BaNiC4Br
0.0,Ba-Cl-Ni,3,BaNiCl3
4.6572,Ba-F-Ni,3,BaNiF4
0.4727,Ba-F-Ni,3,BaNiF6
0.0,Ba-I-Ni-O,4,BaNiIO6
2.0426,Ba-Ni-O,3,BaNiO2
0.0,Ba-Ni-O,3,BaNiO3
1.4691999999999998,Ba-Ni-O,3,BaNiO3
1.5157000000000005,Ba-Ni-O,3,BaNiO3
0.0,Ba-Ni-S,3,BaNiS2
0.0,Ba-Ni-Sn,3,BaNiSn3
1.4587,Ba-H-Np-O,4,BaNp(HO2)3
0.0,Ba-Np-O-P,4,BaNp(PO4)2
0.0,Ba-Np-O,3,BaNpO3
0.5107999999999997,Ba-Np-O,3,BaNpO4
2.3602000000000003,Ba-O,2,BaO
2.1422000000000003,Ba-O,2,BaO
2.0906,Ba-O,2,BaO
2.7678000000000003,Ba-O,2,BaO
0.1674999999999999,Ba-O,2,BaO10
0.0,Ba-O,2,BaO10
2.2941000000000003,Ba-O,2,BaO2
2.2352,Ba-O,2,BaO2
0.0,Ba-O,2,BaO2
0.2728,Ba-O,2,BaO2
3.6022,Ba-O,2,BaO2
0.0,Ba-O,2,BaO3
0.0,Ba-O,2,BaO4
0.0,Ba-O,2,BaO5
0.0,Ba-O,2,BaO6
0.0534,Ba-O,2,BaO6
0.0,Ba-N-Os,3,BaOsN2
0.0,Ba-O-Os,3,BaOsO2
0.0,Ba-O-Os,3,BaOsO3
0.5585999999999993,Ba-P,2,BaP2
5.2848,Ba-H-O-P,4,BaP2(HO)4
4.8488,Ba-H-O-P,4,BaP2(HO2)4
0.7808999999999999,Ba-O-P,3,BaP2O5
1.3658,Ba-P,2,BaP3
0.5735000000000001,Ba-P,2,BaP3
0.8917000000000002,Ba-P,2,BaP8
0.0,Au-Ba-P,3,BaPAu
0.0,Ba-Ir-P,3,BaPIr
0.2955999999999998,Ba-P-Pd,3,BaPPd
0.0,Ba-P-Pt,3,BaPPt
0.0,Ba-Pa,2,BaPa3
0.0,Ba-O-Pa,3,BaPaO3
0.0,Ba-Pb,2,BaPb
4.2418000000000005,Ba-O-Pb-S,4,BaPb(SO4)2
3.2598,Ba-Br-F-Pb,4,BaPb2BrF5
4.0572,Ba-C-F-O-Pb,5,BaPb2C2(O3F)2
2.8346000000000005,Ba-F-I-Pb,4,BaPb2IF5
0.0,Ba-Pb,2,BaPb3
2.0029,Ba-O-Pb,3,BaPb3O4
2.8927,Ba-F-Pb,3,BaPbF6
0.1934,Ba-O-Pb,3,BaPbO3
0.0272999999999998,Ba-O-Pb,3,BaPbO3
0.0,Ba-O-Pb,3,BaPbO3
0.1992999999999996,Ba-O-Pb,3,BaPbO3
0.0267999999999997,Ba-Pd,2,BaPd
0.0,Ba-Pd,2,BaPd
1.9058,Ba-I-O-Pd,4,BaPd(IO3)4
1.6510999999999998,Ba-O-Pd-Se,4,BaPd(SeO3)2
0.0,Ba-Pd,2,BaPd2
0.0,Ba-Pd,2,BaPd5
1.4527,Ba-F-Pd,3,BaPdF4
0.0,Ba-O-Pd,3,BaPdO3
0.0,Ba-O-Pd,3,BaPdO5
0.3542999999999998,Ba-O-Pd,3,BaPdO5
0.0,Ba-Pd-S,3,BaPdS2
0.3649,Ba-Pd-S,3,BaPdS2
0.0,Ba-Pm,2,BaPm
0.0,Ba-Pm,2,BaPm3
0.0,Ba-Pr,2,BaPr
0.0,Ba-Co-O-Pr,4,BaPr(CoO3)2
0.0,Ba-Co-Pr-S,4,BaPr2CoS5
0.4272,Ba-Cu-O-Pr,4,BaPr2CuO5
0.0,Ba-Fe-Pr-S,4,BaPr2FeS5
0.0,Ba-Mn-O-Pr,4,BaPr2Mn3O9
0.0,Ba-Mn-Pr-S,4,BaPr2MnS5
2.1674,Ba-Ni-O-Pr,4,BaPr2NiO5
3.0759,Ba-O-Pr,3,BaPr2O4
2.1389,Ba-O-Pd-Pr,4,BaPr2PdO5
1.9473,Ba-O-Pr-Ti,4,BaPr2Ti3O10
1.1719999999999997,Ba-Pr-S-Zn,4,BaPr2ZnS5
0.4406000000000003,Ba-Ni-O-Pr,4,BaPr3(NiO4)2
0.0,Ba-Cu-O-Pr,4,BaPrCu2O5
0.5658000000000003,Ba-Cu-Pr-Te,4,BaPrCuTe3
2.8386000000000005,Ba-Dy-O-Pr-Sn,5,BaPrDySnO6
2.639,Ba-Dy-O-Pr-Ti,5,BaPrDyTiO6
0.0,Ba-Eu-Fe-O-Pr,5,BaPrEuFeO6
0.5572999999999997,Ba-Eu-Nb-O-Pr,5,BaPrEuNbO6
0.6932,Ba-Eu-O-Pr-Sb,5,BaPrEuSbO6
0.1364999999999998,Ba-Eu-O-Pr-Sb,5,BaPrEuSbO6
0.2355999999999998,Ba-Eu-O-Pr-W,5,BaPrEuWO6
0.0,Ba-Eu-O-Pr-W,5,BaPrEuWO6
0.0,Ba-Cu-Fe-O-Pr,5,BaPrFeCuO5
2.0748,Ba-Fe-O-Pr-Sn,5,BaPrFeSnO6
1.9172,Ba-In-O-Pr-W,5,BaPrInWO6
0.0,Ba-Co-Mg-O-Pr,5,BaPrMg(CoO3)2
0.0,Ba-Mg-Mn-O-Pr,5,BaPrMgMn2O5
0.0,Ba-Mg-Mn-O-Pr,5,BaPrMgMn2O6
0.3033999999999999,Ba-Mg-Mn-O-Pr,5,BaPrMgMn2O6
0.0,Ba-Mn-O-Pr,4,BaPrMn2O5
0.0,Ba-Mn-O-Pr,4,BaPrMn2O6
0.0,Ba-Co-Nb-O-Pr,5,BaPrNbCoO6
0.0,Ba-O-Pr,3,BaPrO3
1.6852999999999998,Ba-Co-O-Pr-Ta,5,BaPrTaCoO6
0.0,Ba-Pt,2,BaPt
0.0,Ba-Pt,2,BaPt2
0.0,Ba-O-Pt,3,BaPt3O4
0.0,Ba-Pt,2,BaPt5
0.0,Ba-O-Pt,3,BaPtO3
1.4098000000000002,Ba-O-Pt,3,BaPtO7
0.0,Ba-O-Pu,3,BaPuO3
0.0,Ba-Re-Sn,3,BaRe2Sn
0.0,Ba-Re,2,BaRe3
0.5214999999999999,Ba-H-Re,3,BaReH7
0.0224000000000001,Ba-H-Re,3,BaReH7
3.0092000000000003,Ba-H-Re,3,BaReH9
3.1242,Ba-H-Re,3,BaReH9
0.3483999999999998,Ba-H-Re,3,BaReH9
3.7353,Ba-H-Re,3,BaReH9
0.1347,Ba-H-Re,3,BaReH9
3.8947,Ba-H-Re,3,BaReH9
3.7118,Ba-H-Re,3,BaReH9
3.8349,Ba-H-Re,3,BaReH9
1.7855000000000003,Ba-N-Re,3,BaReN3
0.0,Ba-O-Re,3,BaReO3
0.0,Ba-Rh,2,BaRh2
0.0,Ba-F-Rh,3,BaRhF6
0.0,Ba-O-Rh,3,BaRhO3
0.0,Ba-N-Ru,3,BaRuN2
0.0,Ba-O-Ru,3,BaRuO3
2.1488,Ba-S,2,BaS
1.5981999999999998,Ba-S,2,BaS2
1.3912999999999998,Ba-S,2,BaS3
1.0473,Ba-S,2,BaS3
1.5130000000000003,Ba-O-S,3,BaSO2
4.4264,Ba-O-S,3,BaSO3
5.807,Ba-O-S,3,BaSO4
5.950699999999999,Ba-O-S,3,BaSO4
4.5086,Ba-O-S,3,BaSO4
0.0,Ba-Sb,2,BaSb2
4.040900000000001,Ba-F-Sb,3,BaSb2F12
4.4186,Ba-F-Sb,3,BaSb2F12
0.0,Ba-Pd-Sb,3,BaSb2Pd
0.0,Ba-Sb,2,BaSb3
0.0,Au-Ba-Sb,3,BaSbAu
2.881,Ba-Cl-O-Sb,4,BaSbClO2
4.7525,Ba-F-Sb,3,BaSbF5
0.0,Ba-Pt-Sb,3,BaSbPt
4.758,Ba-O-Sc-Si,4,BaSc2Si3O10
1.4923,Ba-Cu-Sc-Se,4,BaScCu3Se4
0.8353000000000002,Ba-Cu-S-Sc,4,BaScCuS3
0.0,Ba-Ir-Sc,3,BaScIr
2.9862,Ba-F-O-Sc,4,BaScO2F
0.0,Ba-O-Sc,3,BaScO3
2.3120000000000003,Ba-Ga-O-Sc-Zn,5,BaScZn3GaO7
1.2125999999999997,Ba-Se,2,BaSe
1.9488,Ba-Se,2,BaSe
0.6166000000000003,Ba-Se,2,BaSe2
0.9260000000000002,Ba-Se,2,BaSe3
3.8866,Ba-O-Se,3,BaSeO3
3.7215,Ba-O-Se,3,BaSeO4
0.0,Ba-Si,2,BaSi
4.3516,Ba-H-O-Si,4,BaSi(HO2)2
4.3506,Ba-H-O-Si,4,BaSi(HO2)2
0.0,Ba-Si,2,BaSi2
3.0102,Ba-N-O-Si,4,BaSi2(NO)2
4.7582,Ba-O-Si,3,BaSi2O5
0.0,Ba-Pd-Si,3,BaSi3Pd
0.0,Ba-Pt-Si,3,BaSi3Pt
3.7306,Ba-O-Si-Sn,4,BaSi3SnO9
4.3452,Ba-O-Si,3,BaSi4O9
0.0,Ba-Si,2,BaSi6
4.2279,Ba-N-O-Si,4,BaSi6N8O
3.9124,Ba-N-Si,3,BaSi7N10
0.1793000000000004,Ba-Rh-Si,3,BaSi9Rh2
0.0,Au-Ba-Si,3,BaSiAu
0.0,B-Ba-Si,3,BaSiB
0.2551999999999998,Ba-C-Si,3,BaSiC
7.4159,Ba-F-Si,3,BaSiF6
0.0605999999999999,Ba-Ge-Si,3,BaSiGe
2.9202000000000004,Ba-N-Si,3,BaSiN2
0.9473000000000004,Ba-O-Si,3,BaSiO3
3.0454,Ba-O-Si,3,BaSiO3
2.1249,Ba-O-Si,3,BaSiO3
4.5345,Ba-O-Si,3,BaSiO3
0.0,Ba-O-Si,3,BaSiO4
5.7483,Ba-H-O-P-Si,5,BaSiP4(HO7)2
0.0,Ba-Pd-Si,3,BaSiPd
0.0,Ba-Pt-Si,3,BaSiPt
0.0,Ba-Si-Tc,3,BaSiTc2
0.0,Ba-Co-O-Sm,4,BaSm(CoO3)2
0.0,Ba-Co-O-Sm,4,BaSm(CoO3)4
0.0,Ba-Fe-O-Sm,4,BaSm(FeO3)4
0.0,Ba-Ni-O-Sm,4,BaSm(NiO3)4
1.4676,Ba-Co-O-Sm,4,BaSm2CoO5
0.0,Ba-Fe-S-Sm,4,BaSm2FeS5
2.2387000000000006,Ba-Ni-O-Sm,4,BaSm2NiO5
3.1846,Ba-O-Sm,3,BaSm2O4
2.032,Ba-O-Pd-Sm,4,BaSm2PdO5
2.6307,Ba-O-Pt-Sm,4,BaSm2PtO5
1.9530000000000003,Ba-O-Sm-Ti,4,BaSm2Ti3O10
0.0,Ba-Sm,2,BaSm3
2.8745000000000003,Al-Ba-N-O-Si-Sm,6,BaSm5Al3Si9N20O
2.766,Al-Ba-N-O-Si-Sm,6,BaSm5Al3Si9N20O
4.295999999999999,Ba-C-F-O-Sm,5,BaSmC2O6F
0.0,Ba-Co-Cu-O-Sm,5,BaSmCoCuO6
0.0,Ba-Cr-O-Sm,4,BaSmCr4O12
1.9597,Ba-Cr-O-Sm-Sn,5,BaSmCrSnO6
0.5394000000000001,B-Ba-Cu-O-Sm,5,BaSmCuBO5
0.0,Ba-Bi-Eu-O-Sm,5,BaSmEuBiO6
0.0,Ba-Eu-Fe-O-Sm,5,BaSmEuFeO6
0.0,Ba-Eu-Mn-O-Sm,5,BaSmEuMnO6
0.5838999999999999,Ba-Eu-O-Sb-Sm,5,BaSmEuSbO6
0.0,Ba-Eu-O-Sm-V,5,BaSmEuVO6
0.0483000000000002,Ba-Eu-O-Sm-W,5,BaSmEuWO6
0.0,Ba-Eu-O-Sm-W,5,BaSmEuWO6
0.0,Ba-Cu-Fe-O-Sm,5,BaSmFeCuO5
2.1069,Ba-Fe-O-Sm-Sn,5,BaSmFeSnO6
0.0,Ba-Hf-O-Sm,4,BaSmHf4O12
0.0,Ba-Mn-O-Sm,4,BaSmMn4O12
0.0,Ba-O-Sm-Ti,4,BaSmTi4O12
0.0,Ba-O-Sm-V,4,BaSmV4O12
0.0,Ba-Sn,2,BaSn
2.7866000000000004,Ba-Ge-O-Sn,4,BaSn(GeO3)3
3.7035,Ba-O-P-Sn,4,BaSn(PO4)2
0.0,Ba-Sn,2,BaSn2
2.102,Ba-H-O-Sn,4,BaSn2(HO2)2
0.0,Ba-Sn,2,BaSn3
0.0,Au-Ba-Sn,3,BaSn3Au
0.0,Ba-Pd-Sn,3,BaSn3Pd
0.0,Ba-Pt-Sn,3,BaSn3Pt
1.2542,Ba-S-Sn,3,BaSn3S4
0.0,Ba-Sn,2,BaSn5
3.6599,Ba-F-Sn,3,BaSnF4
3.7754,Ba-F-Sn,3,BaSnF4
4.9883,Ba-F-Sn,3,BaSnF6
0.0,Ba-Hg-Sn,3,BaSnHg
1.8593,Ba-Hg-S-Sn,4,BaSnHgS4
0.7749999999999995,Ba-N-Sn,3,BaSnN2
0.0,Ba-N-Sn,3,BaSnN2
0.6650999999999998,Ba-O-Sn,3,BaSnO3
0.3723999999999998,Ba-O-Sn,3,BaSnO3
1.638,Ba-S-Sn,3,BaSnS2
0.0,Ba-Sr,2,BaSr
0.0,Ba-Co-O-Sr,4,BaSr(CoO3)2
0.0,Ba-Co-O-Sr,4,BaSr(CoO3)4
0.0,Ba-Cu-O-Sr,4,BaSr(CuO2)2
1.6339,Ba-Fe-O-Sr,4,BaSr(FeO2)4
0.6352,Ba-Fe-O-Sr,4,BaSr(FeO2)4
0.5324000000000001,Ba-Fe-O-Sr,4,BaSr(FeO2)4
0.0,Ba-Fe-O-Sr,4,BaSr(FeO3)2
0.0,Ba-Fe-O-Sr,4,BaSr(FeO3)4
0.0,Ba-Ge-O-Sr,4,BaSr(GeO3)4
0.0,Ba-Mo-O-Sr,4,BaSr(MoO3)2
0.0,Ba-Ni-O-Sr,4,BaSr(NiO3)4
0.5665,Ba-O-Pb-Sr,4,BaSr(PbO3)2
0.6697000000000006,Ba-O-Sn-Sr,4,BaSr(SnO3)2
0.7130999999999998,Ba-O-Sn-Sr,4,BaSr(SnO3)2
0.0,Ba-O-Sr-W,4,BaSr(WO3)4
5.335100000000001,Ba-O-P-Sr,4,BaSr2(PO4)2
1.4113000000000002,Ba-O-Sn-Sr,4,BaSr2(SnO3)3
0.0,Ba-Ca-Sr,3,BaSr2Ca
0.0,Ba-Eu-Sr,3,BaSr2Eu
3.9768,Ba-I-Sr,3,BaSr2I6
1.0725000000000002,Ba-In-O-Sr,4,BaSr2In2O6
1.8143,Ba-In-O-Sr,4,BaSr2In6O12
4.759,Ba-Mg-O-Si-Sr,5,BaSr2Mg(SiO4)2
0.0,Ba-Mn-O-Si-Sr,5,BaSr2Mn2(Si2O7)2
0.0,Ba-N-Sr,3,BaSr2N2
0.0,Ba-Np-Sr,3,BaSr2Np
1.6908999999999996,Ba-In-O-Sc-Sr,5,BaSr2ScInO6
2.6055,Ba-O-Sr-Tm,4,BaSr2Tm6O12
2.2417,Ba-O-Sr-U,4,BaSr2UO6
0.5624000000000002,Ba-Cu-O-Pt-Sr-Y,6,BaSr2Y2Cu2PtO10
2.6259,Ba-O-Sr-Y,4,BaSr2Y6O12
0.0,Ba-Sr,2,BaSr3
0.0437000000000002,Ba-Co-O-Sr,4,BaSr3(CoO3)4
0.9630999999999998,Ba-Co-O-Sr,4,BaSr3(CoO3)4
1.2843999999999998,Ba-O-Sn-Sr,4,BaSr3(SnO3)4
0.0,Ag-Ba-Sr,3,BaSr3Ag4
2.3031,Ba-Ca-Mo-O-Sr,5,BaSr3Ca2(MoO6)2
0.0,Ba-Co-Cu-O-Sr,5,BaSr3Co2(CuO6)2
0.0,Ba-Co-Cu-O-S-Sr,6,BaSr3Co2Cu4(SO)4
1.8294,Ba-Bi-Lu-O-Sr,5,BaSr3Lu2(BiO6)2
1.3553000000000002,Ba-Mn-O-Sr,4,BaSr3Mn3O10
0.8782000000000001,Ba-Mn-O-Sr,4,BaSr3Mn4O12
2.5199,Ba-O-Sr,3,BaSr3O4
0.0,Ba-F-O-Pd-Sr,5,BaSr3Pd2(OF)4
1.7434000000000005,Ba-O-Sr-Ti,4,BaSr3Ti4O12
2.212,Ba-O-Sr-Ti-Zr,5,BaSr3Zr2Ti2O12
3.4848000000000003,Ba-O-Sr-Zr,4,BaSr3Zr4O12
0.0,Ba-Sr,2,BaSr4
0.0,Ba-Fe-O-Sr,4,BaSr4(FeO2)5
0.0,Ba-Fe-O-Sr,4,BaSr4(FeO3)5
5.1682,Ba-Cl-Sr,3,BaSr4Cl10
5.342899999999999,Ba-Cl-Sr,3,BaSr4Cl10
1.8048,Ba-O-Sr-Ti,4,BaSr4Ti5O15
0.0,Ba-Bi-Fe-O-Sr,5,BaSr6Fe3Bi3O16
0.0,Ba-Fe-O-Sr,4,BaSr7(FeO3)8
0.0,Ba-Co-Cu-O-Sr,5,BaSr7Co4(CuO6)4
0.0,Ba-Co-Cu-O-Sr,5,BaSr7Co5(CuO8)3
0.0,Ba-Co-Cu-O-Sr,5,BaSr7Co6(CuO12)2
0.0,Ba-Co-Fe-O-Sr,5,BaSr7Fe6(CoO12)2
0.0,Ba-Co-Fe-O-Sr,5,BaSr7Fe7CoO24
0.0,Ba-Fe-Mn-O-Sr,5,BaSr7Mn2(FeO4)6
0.0,Ba-Fe-Mn-O-Sr,5,BaSr7MnFe7O24
0.0,Ba-Mn-O-Sr-Ti,5,BaSr7Ti5Mn3O24
0.6989999999999998,Ba-Mn-O-Sr-Ti,5,BaSr7Ti6Mn2O24
0.9921999999999996,Ba-Mn-O-Sr-Ti,5,BaSr7Ti7MnO24
1.7462,Ba-O-Sr-Ti,4,BaSr7Ti8O24
1.9536999999999995,Ba-Bi-O-Sb-Sr,5,BaSrBiSbO6
1.7818999999999994,Ba-Bi-O-Sb-Sr,5,BaSrBiSbO6
1.6669,Ba-Bi-O-Sb-Sr,5,BaSrBiSbO6
0.0,Ba-Ca-Cu-O-Sr-Tl,6,BaSrCa2Tl(CuO3)3
0.5585,Ba-Ca-Cr-O-Sr,5,BaSrCaCrO6
0.0,Ba-Ca-Fe-O-Sr,5,BaSrCaFeO6
4.7476,Ba-Ca-Mg-O-Si-Sr,6,BaSrCaMg(SiO4)2
0.0,Ba-Ca-Mn-O-Sr,5,BaSrCaMnO6
2.2592000000000003,Ba-Ca-Mo-O-Sr,5,BaSrCaMoO6
2.4917,Ba-Ca-O-Se-Sr,5,BaSrCaSeO6
2.1937,Ba-Ca-O-Se-Sr,5,BaSrCaSeO6
3.405,Ba-Ca-O-Sr-W,5,BaSrCaWO6
3.1419,Ba-Ca-O-Sr-W,5,BaSrCaWO6
3.3685,Ba-Ca-O-Sr-W,5,BaSrCaWO6
3.3675000000000006,Ba-Ca-O-Sr-W,5,BaSrCaWO6
3.4024,Ba-Ca-O-Sr-W,5,BaSrCaWO6
3.1999000000000004,Ba-Ca-O-Sr-W,5,BaSrCaWO6
2.1796999999999995,Ba-Ce-O-Sr,4,BaSrCe2O6
2.2856,Ba-Ce-O-Sr,4,BaSrCe2O6
2.2035,Ba-Ce-O-Sr,4,BaSrCe2O6
0.0,Ba-Ce-O-Sr,4,BaSrCe4O12
0.0,Ba-Bi-Ce-O-Sr,5,BaSrCeBiO6
0.1074000000000001,Ba-Bi-Ce-O-Sr,5,BaSrCeBiO6
0.0,Ba-Ce-Cr-O-Sr,5,BaSrCeCrO6
0.0,Ba-Ce-Fe-O-Sr,5,BaSrCeFeO6
2.3501000000000003,Ba-Ce-Hf-O-Sr,5,BaSrCeHfO6
2.1941000000000006,Ba-Ce-Hf-O-Sr,5,BaSrCeHfO6
1.1908,Ba-Ce-Ni-O-Sr,5,BaSrCeNiO6
0.1107000000000004,Ba-Ce-O-Sb-Sr,5,BaSrCeSbO6
0.0,Ba-Ce-O-Sb-Sr,5,BaSrCeSbO6
2.2351,Ba-Ce-O-Sn-Sr,5,BaSrCeSnO6
2.1393000000000004,Ba-Ce-O-Sr-Ti,5,BaSrCeTiO6
2.1429,Ba-Ce-O-Sr-Ti,5,BaSrCeTiO6
0.0,Ba-Ce-O-Sr-V,5,BaSrCeVO6
1.2290000000000003,Ba-Ce-O-Sr-V,5,BaSrCeVO6
0.6247999999999996,Ba-Ce-O-Sr-W,5,BaSrCeWO6
0.0,Ba-Ce-O-Sr-W,5,BaSrCeWO6
2.2322,Ba-Ce-O-Sr-Zr,5,BaSrCeZrO6
2.4033,Ba-Ce-O-Sr-Zr,5,BaSrCeZrO6
0.0,Ba-Co-Cu-O-S-Sr,6,BaSrCoCu2(SO)2
0.0,Ba-Co-O-Sr-W,5,BaSrCoWO6
0.0,Ba-Cr-O-Sr,4,BaSrCr4O12
0.1420000000000003,Ba-Bi-Cr-O-Sr,5,BaSrCrBiO6
0.0,Ba-Cr-O-Sn-Sr,5,BaSrCrSnO6
0.0,Ba-Bi-Cu-O-Sr,5,BaSrCuBiO6
0.0940999999999996,Ba-C-Cu-O-Sr,5,BaSrCuCO4
3.6976,Ba-Dy-O-Sr,4,BaSrDy4O8
1.856,Ba-Bi-Dy-O-Sr,5,BaSrDyBiO6