eg,chemsys,nelements,formula
0.5154999999999998,Ca-O-Sb,3,CaSb4O9
3.1,As-Ca-O-Sb,4,CaSbAsO5
0.0,Au-Ca-Sb,3,CaSbAu
4.475700000000001,Ca-F-Sb,3,CaSbF5
2.9875,Ca-F-Sb,3,CaSbF5
3.1499,Ca-F-Sb,3,CaSbF5
0.0,Ca-F-Sb,3,CaSbF6
0.0,Ca-O-Sb,3,CaSbO3
0.0,Ca-Pd-Sb,3,CaSbPd
0.0,Ca-Pd-Sb,3,CaSbPd2
0.0,Ca-Pt-Sb,3,CaSbPt
3.458,Ca-O-Sc,3,CaSc2O4
1.1752000000000002,Ca-Fe-O-Sc,4,CaSc4(FeO3)4
0.9896000000000004,Ca-O-Sc-Si,4,CaSc4(Si2O7)2
0.1681999999999996,Ca-O-Sc-Si,4,CaSc4(Si2O7)2
4.6365,Al-Ca-O-Sc-Si,5,CaScAlSiO6
4.604699999999999,Al-Ca-O-Sc-Si,5,CaScAlSiO6
1.8379,Ca-Cu-Sc-Se,4,CaScCu3Se4
0.0,Ca-O-Sc,3,CaScO3
5.101800000000001,Ca-H-O-Sc-Si,5,CaScSi3HO9
3.1661,Ca-Se,2,CaSe
2.0728000000000004,Ca-Se,2,CaSe
0.0,Ca-O-Se,3,CaSe2O7
4.2602,Ca-O-Se,3,CaSeO3
4.1407,Ca-O-Se,3,CaSeO3
3.2683,Ca-O-Se,3,CaSeO4
3.4068000000000005,Ca-O-Se,3,CaSeO4
3.42,Ca-O-Se,3,CaSeO4
0.6994,Ca-O-Se,3,CaSeO4
3.4841000000000006,Ca-O-Se,3,CaSeO4
0.0,Ca-Si,2,CaSi
0.0,Ca-H-O-Si,4,CaSi(HO2)2
5.1408,Ca-H-O-Si,4,CaSi(HO2)2
0.0,Ca-Si,2,CaSi2
0.0,Ag-Ca-O-Si,4,CaSi2(AgO)8
0.6392999999999998,Ag-Ca-O-Si,4,CaSi2(AgO)8
4.2294,Ca-Ni-O-Si,4,CaSi2NiO6
4.7792,Ca-O-Si,3,CaSi2O5
2.8773,Ca-O-Si-Sn,4,CaSi2SnO6
1.3219000000000003,Ca-O-Si-W,4,CaSi2WO6
0.0,Ca-Si,2,CaSi3
0.0,C-Ca-Si,3,CaSi3C4
0.0,Ca-Ir-Si,3,CaSi3Ir
0.0,Ca-Pt-Si,3,CaSi3Pt
0.0,Ca-Ni-O-Si,4,CaSi4(NiO6)2
0.0,Ca-Ir-Si,3,CaSi7Ir3
3.769799999999999,Ca-N-Si,3,CaSi7N10
0.0,Au-Ca-Si,3,CaSiAu
4.2755,B-Ca-H-O-Si,5,CaSiBHO5
5.390499999999999,B-Ca-H-O-Si,5,CaSiBHO5
0.4043000000000001,B-Ca-O-Si,4,CaSiBO5
2.1951,Ca-N-Si,3,CaSiN2
0.0,Ca-Ni-Si,3,CaSiNi2
3.6218,Ca-O-Si,3,CaSiO3
4.7336,Ca-O-Si,3,CaSiO3
3.5146,Ca-O-Si,3,CaSiO3
3.6891000000000007,Ca-O-Si,3,CaSiO3
3.5299,Ca-O-Si,3,CaSiO3
4.733700000000001,Ca-O-Si,3,CaSiO3
4.8413,Ca-O-Si,3,CaSiO3
3.5088,Ca-O-Si,3,CaSiO3
5.3660000000000005,Ca-O-Si,3,CaSiO3
5.6854000000000005,Ca-O-Si,3,CaSiO3
3.4579000000000004,Ca-O-Si,3,CaSiO3
0.0,Ca-O-Si,3,CaSiO4
0.1118000000000001,Ca-O-Si,3,CaSiO5
0.0,Ca-Pd-Si,3,CaSiPd
0.0,Ca-Pt-Si,3,CaSiPt
3.2022,Ca-O-Si-Sn,4,CaSiSnO5
3.2313,Ca-O-Si-Sn,4,CaSiSnO5
1.5452000000000004,Ca-O-Si-Sn,4,CaSiSnO5
0.0,Ca-Co-O-Sm,4,CaSm(CoO3)4
0.0,Ca-Fe-O-Sm,4,CaSm(FeO3)4
0.0,Ca-Ni-O-Sm,4,CaSm(NiO3)4
3.8425,Ca-O-Sm,3,CaSm2O4
0.0,Ca-S-Sm,3,CaSm2S3
0.0,Ca-Sm,2,CaSm3
0.0,Ca-H-O-Sm,4,CaSm4(HO2)4
1.2814000000000003,Ca-Mo-O-Sm,4,CaSm4(Mo2O7)2
1.2584999999999995,Ca-Mo-O-Sm,4,CaSm4(Mo2O7)2
0.1420000000000003,Ca-Mn-O-Sm-Ti,5,CaSm4Ti2Mn2O12
0.5693000000000001,Ca-O-Sm-Tm,4,CaSm4Tm4O12
0.5267,Ca-O-Sm-Tm,4,CaSm4Tm4O12
0.0171999999999998,Ca-O-Sm-Tm,4,CaSm4Tm4O12
0.6810999999999998,Ca-O-Sm-Tm,4,CaSm4Tm4O12
1.1309999999999991,Ca-O-Sm-V,4,CaSm4V4O12
0.0,Ag-Ca-Sm,3,CaSmAg2
4.2347,Al-Ca-O-Sm,4,CaSmAl3O7
0.0,Al-Ca-Sm,3,CaSmAl4
3.1857,Al-Ca-O-Sm,4,CaSmAlO4
0.0,B-Ca-Sm,3,CaSmB12
0.0,Ca-Cd-Sm,3,CaSmCd2
1.0709,Ca-Co-O-Sm,4,CaSmCoO4
0.0205999999999999,Ca-Cr-O-Sm,4,CaSmCr4O12
2.4963,Ca-Cr-O-Sm,4,CaSmCrO4
0.0,Ca-Cl-Cu-O-Sm,5,CaSmCuClO3
0.1848999999999998,Ca-Eu-O-Sb-Sm,5,CaSmEuSbO6
3.1912000000000003,Ca-Ga-O-Sm,4,CaSmGa3O7
0.0,Ca-Hg-Sm,3,CaSmHg2
0.0,Ca-In-Sm,3,CaSmIn2
0.0,Ca-Mg-Sm,3,CaSmMg2
3.5820000000000003,Ca-Mg-Nb-O-Sm,5,CaSmMgNbO6
0.0,Ca-Mn-O-Sm,4,CaSmMn2O6
0.0,Ca-Mn-O-Sm,4,CaSmMn4O12
0.0,Ca-Mn-O-Sm-Sn,5,CaSmMnSnO6
1.0705999999999998,Ca-Mn-O-Sm-Sn,5,CaSmMnSnO6
0.3601000000000001,Ca-Mn-O-Sm-Sn,5,CaSmMnSnO6
0.0,Ca-Pd-Sm,3,CaSmPd2
0.0,Ca-Rh-Sm,3,CaSmRh2
0.0,Ca-O-Sm-Ti,4,CaSmTi4O12
0.0,Ca-O-Sm-V,4,CaSmV4O12
0.0,Ca-Sm-Zn,3,CaSmZn2
0.0,Ca-Sn,2,CaSn
3.7069,B-Ca-O-Sn,4,CaSn(BO3)2
1.6305999999999998,Ca-Ge-O-Sn,4,CaSn(GeO3)2
2.4987000000000004,Ca-O-P-Sn,4,CaSn2(PO5)2
3.4998000000000005,Ca-F-Sn,3,CaSn2F6
0.0,Ca-Ir-Sn,3,CaSn2Ir
0.3491999999999997,Ca-O-Sn,3,CaSn2O5
0.5842,Ca-O-Sn,3,CaSn2O5
1.5040999999999998,Ca-O-Sn,3,CaSn2O5
0.0,Ca-Pd-Sn,3,CaSn2Pd
0.0,Ca-Rh-Sn,3,CaSn2Rh
0.4209999999999998,Ca-S-Sn,3,CaSn2S5
0.8349999999999995,Ca-S-Sn,3,CaSn2S5
0.0,Ca-Sn,2,CaSn3
3.5179,Ca-O-P-Sn,4,CaSn4(PO4)6
0.7728999999999999,Ca-O-Sn,3,CaSn4O9
0.0,Ca-O-Sn,3,CaSn5O7
1.7467999999999997,As-Ca-O-Sn,4,CaSnAsO5
0.0,Au-Ca-Sn,3,CaSnAu
0.0,Au-Ca-Sn,3,CaSnAu2
3.4986,Ca-F-Sn,3,CaSnF4
0.0,Ca-F-Sn,3,CaSnF5
5.418,Ca-F-Sn,3,CaSnF6
5.3881,Ca-F-Sn,3,CaSnF6
0.0,Ca-Hg-Sn,3,CaSnHg
1.3772000000000002,Ca-N-Sn,3,CaSnN2
1.6932999999999998,Ca-O-Sn,3,CaSnO2
1.6462000000000003,Ca-O-Sn,3,CaSnO2
0.4660000000000002,Ca-O-Sn,3,CaSnO2
0.0,Ca-O-Sn,3,CaSnO2
0.7363,Ca-O-Sn,3,CaSnO3
2.9378999999999995,Ca-O-Sn,3,CaSnO3
2.3301,Ca-O-Sn,3,CaSnO3
0.0,Ca-O-Sn,3,CaSnO3
1.3904999999999994,Ca-O-Sn,3,CaSnO3
0.0,Ca-O-Sn,3,CaSnO6
0.4849000000000001,Ca-O-Sn,3,CaSnO6
3.6382,Ca-O-P-Sn,4,CaSnP2O7
3.6093,Ca-O-P-Sn,4,CaSnP2O7
4.211,Ca-H-O-P-Sn,5,CaSnP6(HO)12
0.0,Ca-Pd-Sn,3,CaSnPd
0.0,Ca-Pt-Sn,3,CaSnPt
0.0,Ca-Rh-Sn,3,CaSnRh2
0.0,Ca-S-Sn,3,CaSnS3
0.0001000000000002,Ca-S-Sn,3,CaSnS3
0.1110000000000002,Ca-S-Sn,3,CaSnS3
0.3999999999999999,Ca-S-Sn,3,CaSnS3
0.8479000000000005,Ca-S-Sn,3,CaSnS3
0.3979999999999997,Ca-S-Sn,3,CaSnS3
0.7503000000000002,Ca-S-Sn,3,CaSnS3
1.6173000000000002,Ca-S-Sn,3,CaSnS3
0.9076,Ca-S-Sn,3,CaSnS3
0.7142,Ca-S-Sn,3,CaSnS3
0.4246999999999996,Ca-S-Sn,3,CaSnS3
0.2488000000000001,Ca-S-Sn,3,CaSnS3
2.2305,Bi-Ca-O-Ta,4,CaTa2Bi2O9
2.9633000000000003,Bi-Ca-O-Ta,4,CaTa2Bi2O9
0.0726999999999993,Bi-Ca-O-Ta,4,CaTa2Bi2O9
3.4738999999999995,Ca-O-Ta,3,CaTa2O6
2.0982000000000003,Ca-O-Ta,3,CaTa2O6
2.4405,Ca-O-Ta,3,CaTa2O6
0.0,Ca-Ta-Tl,3,CaTa2Tl
3.5438,Ca-O-Ta,3,CaTa4O11
0.0,Ca-O-Ta,3,CaTa4O14
3.8744,Al-Ca-O-Ta,4,CaTaAlO5
3.9007,Al-Ca-O-Ta,4,CaTaAlO5
3.5288,Al-Ca-O-Ta,4,CaTaAlO5
1.2321999999999995,Ca-N-O-Ta,4,CaTaNO2
1.6121999999999996,Ca-N-O-Ta,4,CaTaNO2
0.0,Ca-Ta-Tc,3,CaTaTc
0.0,Ca-O-P-Ta-Ti,5,CaTaTi(PO4)3
3.4317,Ca-O-Tb,3,CaTb2O4
2.8674,Ca-O-Tb,3,CaTb2O4
4.0827,Ca-O-Tb,3,CaTb2O4
0.0,Ca-Tb,2,CaTb3
0.0,Ca-Mn-O-Tb,4,CaTb3Mn4O12
3.9311,Ca-O-P-Tb,4,CaTb4(PO4)4
2.6212,Al-Ca-Fe-O-Tb,5,CaTb4Al2(FeO6)2
3.2471000000000005,Al-Ca-Fe-O-Tb,5,CaTb4Al2(FeO6)2
0.3152999999999997,Ca-Eu-Nb-O-Tb,5,CaTbEuNbO6
0.1824000000000003,Ca-Eu-Nb-O-Tb,5,CaTbEuNbO6
0.1396000000000006,Ca-Eu-O-Sb-Tb,5,CaTbEuSbO6
0.0181,Ca-Eu-O-Tb-V,5,CaTbEuVO6
0.0,Ca-F-Tb,3,CaTbF6
0.0,Ca-Hg-Tb,3,CaTbHg2
0.0,Ca-Mn-O-Tb,4,CaTbMn2O6
0.0,Ca-Pd-Tb,3,CaTbPd2
0.0,Ca-Rh-Tb,3,CaTbRh2
1.4065,Ca-N-Tc,3,CaTcN3
0.4740000000000002,Ca-N-Tc,3,CaTcN3
0.0,Ca-O-Tc,3,CaTcO3
0.0,Ca-Te,2,CaTe
1.5535,Ca-Te,2,CaTe
1.6323000000000003,Ca-Te,2,CaTe
1.9045,Ca-O-Te,3,CaTe2O7
2.0176,Ca-O-Te,3,CaTe3O8
1.9457,Ca-F-H-O-Te,5,CaTe4H4(O3F4)2
2.2712,Ca-O-Te,3,CaTeO4
4.628500000000001,Ca-O-P-Th,4,CaTh(PO4)2
3.5626,Ca-Nb-O-Th,4,CaThNb2O8
0.0,Ca-Rh-Th,3,CaThRh2
3.0505,Ca-O-Th-V,4,CaThV2O8
1.2818,Ca-Ge-O-Ti,4,CaTi(GeO3)2
0.0,Ca-O-P-Ti,4,CaTi(PO3)4
0.0,Ca-O-Si-Ti,4,CaTi(SiO3)2
2.5527999999999995,Ca-O-P-Ti,4,CaTi2(PO5)2
4.0996,Ca-F-Ti,3,CaTi2F10
0.0,Ca-Fe-O-P-Ti,5,CaTi2Fe2(PO4)6
1.3812000000000006,Ca-Fe-O-Ti,4,CaTi2FeO6
1.5799999999999996,Ca-Mn-O-Ti,4,CaTi2MnO6
0.0,Ca-O-Ti,3,CaTi2O4
2.7445,Ca-O-Ti,3,CaTi2O5
2.9078,Ca-O-Ti,3,CaTi2O5
0.0,Ca-O-Ti,3,CaTi2O6
2.2307,Ca-O-Pb-Ti,4,CaTi2PbO6
2.0012,Ca-O-Pb-Ti,4,CaTi2PbO6
1.2948,Ca-S-Ti,3,CaTi2S5
0.1104000000000002,Ca-O-P-Ti-Zn,5,CaTi2Zn2(PO5)2
0.4841999999999999,Ca-O-Ti-V,4,CaTi3V5O16
0.8822999999999999,Ca-O-Ti-V,4,CaTi3V5O16
1.2749,Ca-O-Ti-V,4,CaTi3V5O16
0.0,Ca-Cu-O-Ti,4,CaTi4(CuO4)3
1.6248,Ca-Fe-O-Ti,4,CaTi4(FeO4)3
2.4899,Ca-O-P-Ti,4,CaTi4(PO4)6
0.5335000000000001,Ca-O-Pd-Ti,4,CaTi4(PdO4)3
0.0,Ca-O-Ti,3,CaTi4O6
0.0,Ca-O-Ti,3,CaTi4O8
2.6104000000000003,Ca-O-Ti,3,CaTi4O9
0.0,Ca-O-Ti,3,CaTi5O7
0.0,Ca-H-O-Ti,4,CaTi6(H2O7)2
0.2798,Ag-Ca-O-P-Ti,5,CaTiAg(PO4)3
1.7906,As-Ca-O-Ti,4,CaTiAsO5
0.9571,Ca-Co-O-P-Ti,5,CaTiCo(PO4)3
2.3575,Ca-Cr-O-P-Ti,5,CaTiCr(PO4)3
0.0,Ca-Cu-O-P-Ti,5,CaTiCu(PO4)3
0.0,Ca-Cu-O-Ti,4,CaTiCuO4
0.0,Ca-F-Ti,3,CaTiF4
0.1467999999999998,Ca-F-Ti,3,CaTiF5
0.2465999999999999,Ca-F-Ti,3,CaTiF5
4.7085,Ca-F-Ti,3,CaTiF6
4.616700000000001,Ca-F-Ti,3,CaTiF6
0.0,Ca-Fe-O-P-Ti,5,CaTiFe(PO4)3
1.8936,Ca-Fe-O-Ti,4,CaTiFe5O8
2.0571,Ca-Fe-O-Ti,4,CaTiFe5O8
2.7005,Ca-Ge-O-Ti,4,CaTiGeO5
2.7038,Ca-Ge-O-Ti,4,CaTiGeO5
0.3673999999999999,Ca-F-H-O-Ti,5,CaTiH6(OF3)2
0.1246999999999998,Ca-F-H-O-Ti,5,CaTiH6(OF3)2
0.0934000000000003,Ca-F-H-O-Ti,5,CaTiH6(OF3)2
0.0,Ca-Mn-O-P-Ti,5,CaTiMn(PO4)3
1.0527999999999995,Ca-Mn-O-P-Ti,5,CaTiMn(PO4)3
0.9905,Ca-Mo-O-P-Ti,5,CaTiMo(PO4)3
0.0,Ca-In-Nb-O-Ti,5,CaTiNbInO6
0.0,Ca-Nb-O-Sn-Ti,5,CaTiNbSnO6
0.0,Ca-Ni-O-P-Ti,5,CaTiNi(PO4)3
0.0182000000000002,Ca-O-Ti,3,CaTiO2
0.0,Ca-O-Ti,3,CaTiO2
2.1378,Ca-O-Ti,3,CaTiO3
2.2434,Ca-O-Ti,3,CaTiO3
2.3053,Ca-O-Ti,3,CaTiO3
2.1586,Ca-O-Ti,3,CaTiO3
1.8285,Ca-O-Ti,3,CaTiO3
3.3276000000000003,Ca-O-Ti,3,CaTiO3
0.1928,Ca-O-P-Ti,4,CaTiP2O7
0.3256999999999994,Ca-O-P-Ti,4,CaTiP2O7
0.6847999999999996,Ca-O-P-Ti-W,5,CaTiP3WO12
0.0,Ca-O-P-Ti,4,CaTiPO5
0.0,Ca-S-Ti,3,CaTiS2
2.9855,Ca-O-Si-Ti,4,CaTiSiO5
2.902,Ca-O-Si-Ti,4,CaTiSiO5
0.0,Ca-O-P-Sn-Ti,5,CaTiSn(PO4)3
1.3963,Ca-O-P-Ti-V,5,CaTiV(PO4)3
0.0,Ca-Tl,2,CaTl
0.0,Ca-Cd-Tl,3,CaTl2Cd
0.0439000000000007,Ca-O-Tl,3,CaTl2O4
0.0,Ca-Tl,2,CaTl3
0.2476000000000002,Ca-Ni-O-Tl,4,CaTl4(NiO3)4
0.2442000000000002,Ca-Ni-O-Tl,4,CaTl4(NiO3)4
0.0,Ca-Ni-O-Tl,4,CaTl4(NiO3)4
0.0497999999999998,C-Ca-F-O-Tl,5,CaTl6C2(O3F)2
0.0381,C-Ca-F-O-Tl,5,CaTl6C2(O3F)2
0.1230000000000002,C-Ca-F-O-Tl,5,CaTl6C2(O3F)2
0.9082,Ca-O-Si-Tl,4,CaTl6Si2O7
3.7234,Br-Ca-Tl,3,CaTlBr3
4.1784,Ca-Cl-Tl,3,CaTlCl3
3.9835,Ca-Cl-Tl,3,CaTlCl3
0.3968000000000002,Ca-Cu-Se-Tl,4,CaTlCu3Se4
4.4565,Ca-F-Tl,3,CaTlF3
4.4564,Ca-F-Tl,3,CaTlF3
4.6281,Ca-F-Tl,3,CaTlF3
3.2511,Ca-I-Tl,3,CaTlI3
4.2171,Ca-O-Tm,3,CaTm2O4
3.8132,Ca-O-Tm,3,CaTm2O4
3.3401,Ca-O-Tm,3,CaTm2O4
0.0,Ca-Cd-Tm,3,CaTmCd2
0.0,Ca-Hg-Tm,3,CaTmHg2
0.0,Ca-In-Tm,3,CaTmIn2
0.0,Ca-Mn-O-Tm,4,CaTmMn2O6
0.0,Ca-O-Tm,3,CaTmO3
0.0,Ca-Pd-Tm,3,CaTmPd2
0.0,Ca-Pt-Tm,3,CaTmPt2
0.0,Ca-Rh-Tm,3,CaTmRh2
0.0,Ca-Tm-Zn,3,CaTmZn2
1.6803999999999997,Ca-O-Pb-U,4,CaU(PbO3)2
1.9468,Ca-O-Se-U,4,CaU(SeO4)2
0.4784000000000001,Ca-O-Se-U,4,CaU(SeO4)2
2.0258000000000003,B-Ca-O-U,4,CaU2(BO5)2
0.0,Ca-O-P-U,4,CaU2(PO2)2
0.0,Ca-O-P-U,4,CaU2(PO9)2
0.0593000000000003,Ca-O-Ti-U,4,CaU3Ti8O24
0.0,Ca-F-U,3,CaUF6
0.8934999999999995,Ca-O-U,3,CaUO4
2.1038999999999994,Ca-O-U,3,CaUO4
1.7785000000000002,Ca-O-U,3,CaUO4
0.0,Ca-S-U,3,CaUS2
0.0,Ca-O-Ti-U,4,CaUTi2O7
0.3807,Ca-Ge-O-V,4,CaV(GeO3)2
0.1006,Ca-Ge-O-V,4,CaV(GeO3)4
3.103800000000001,Ca-O-P-V,4,CaV(PO3)4
1.4277000000000006,Ca-O-Si-V,4,CaV(SiO3)2
1.8731,Ca-O-P-V,4,CaV2(PO5)2
1.8445,Ca-O-P-V,4,CaV2(PO5)2
0.0,Bi-Ca-O-Pb-V,5,CaV2Bi2(PbO5)2
0.5708,Ca-O-V,3,CaV2O10
0.0,Ca-O-V,3,CaV2O10
0.3144,Ca-O-V,3,CaV2O10
0.0,Ca-O-V,3,CaV2O2
0.0,Ca-O-V,3,CaV2O4
1.6522,Ca-O-V,3,CaV2O4
1.5513,Ca-O-V,3,CaV2O4
2.1662,Ca-O-V,3,CaV2O5
0.0,Ca-O-V,3,CaV2O5
1.5352,Ca-O-V,3,CaV2O6
2.8812,Ca-O-V,3,CaV2O6
0.6960999999999999,Ca-O-V,3,CaV2O8
2.3443,Ca-H-O-P-V,5,CaV2P2(H4O7)2
0.1371000000000002,Ca-H-O-P-V,5,CaV2P2(H4O7)2
0.0,Ca-S-V,3,CaV2S5
1.7289999999999996,Ca-O-Si-V-Zn,5,CaV2Zn2(SiO5)2
1.9263,Ca-O-Si-V-Zn,5,CaV2Zn2(SiO5)2
0.0,Ca-Co-O-V,4,CaV4(CoO4)3
0.7233,Ca-Co-O-V,4,CaV4(CoO4)3
0.0,Ca-Cu-O-V,4,CaV4(CuO4)3
0.0,Ca-Ge-O-V,4,CaV4(GeO4)4
0.0,Ca-Ni-O-V,4,CaV4(NiO6)2
0.9981,Ca-Ni-O-V,4,CaV4(NiO6)2
1.3294,Ca-O-P-V,4,CaV4(PO5)4
0.8935000000000002,Ca-O-P-V,4,CaV4(PO5)4
0.0,Ca-O-Pd-V,4,CaV4(PdO4)3
0.0,Ca-Co-Cu-O-V,5,CaV4Co(CuO6)2
0.9802,Ca-O-V,3,CaV4O10
0.1412999999999999,Ca-O-V,3,CaV4O10
0.2052,Ca-O-V,3,CaV4O15
0.2776000000000005,Ca-O-V,3,CaV4O6
0.0,Ca-O-V,3,CaV4O6
0.3440000000000003,Ca-O-V,3,CaV4O6
0.0,Ca-O-V,3,CaV4O8
0.6497000000000002,Ca-O-V,3,CaV4O8
2.5061,Ca-O-V,3,CaV4O9
0.4382999999999999,Ca-O-V,3,CaV5O7
0.5758999999999999,Ca-O-V,3,CaV5O7
0.5870999999999995,Ca-O-V,3,CaV5O7
0.0,Ca-O-V,3,CaV5O7
0.4537999999999997,Ca-F-O-V,4,CaV6O11F
0.9425,Ca-F-O-V,4,CaV6O11F
1.0175999999999998,Ca-F-O-V,4,CaV6O11F
1.1967,Ca-F-O-V,4,CaV6O11F
0.7215000000000003,Ca-F-O-V,4,CaV6O11F
0.0,Ca-O-V,3,CaV6O23
0.7567999999999997,Ca-F-O-V,4,CaV8(OF)8
0.4441000000000001,Ca-F-O-V,4,CaV8(OF)8
0.3980999999999999,Ca-F-O-V,4,CaV8(OF)8
0.3682,Ca-O-V,3,CaV8O24
1.3450999999999995,As-Ca-O-V,4,CaVAsO5
0.4436,Bi-Ca-O-V,4,CaVBiO6
0.0740999999999996,Ca-Cu-Se-V,4,CaVCu3Se4
0.5316000000000001,Ca-Cu-H-O-V,5,CaVCuHO5
1.9666,Ca-F-V,3,CaVF4
0.2454,Ca-F-V,3,CaVF5
0.0,Ca-F-V,3,CaVF5
0.0,Ca-F-V,3,CaVF6
1.7576000000000005,Ca-Fe-O-P-V,5,CaVFe(P2O7)2
0.0012000000000003,Ca-Fe-O-P-V,5,CaVFe(P2O7)2
1.8609,Ca-Fe-O-P-V,5,CaVFe(P2O7)2
1.9354,Ca-Fe-O-P-V,5,CaVFe(P2O7)2
1.6683,Ca-Fe-O-P-V,5,CaVFe(P2O7)2
0.0,Ca-O-V,3,CaVO2
0.0,Ca-O-V,3,CaVO3
0.2606000000000001,Ca-O-V,3,CaVO3
0.4338999999999999,Ca-O-V,3,CaVO3
1.1317000000000004,Ca-O-Si-V,4,CaVSiO5
0.4579999999999993,Ca-O-Sn-V-W,5,CaVSnWO6
0.0,Ca-W,2,CaW
1.0661999999999998,Ca-O-W,3,CaW2O5
1.2515000000000005,Ca-O-W,3,CaW2O5
4.2676,Ca-O-W,3,CaW2O7
0.9723000000000006,Ca-O-W,3,CaW4O9
0.0,Ca-O-W,3,CaW5O7
1.4295,Ca-F-W,3,CaWF4
3.2191,Ca-F-W,3,CaWF5
3.4511000000000003,Ca-F-W,3,CaWF5
3.7379,Ca-F-W,3,CaWF6
0.5612000000000004,Ca-N-W,3,CaWN3
0.0,Ca-O-W,3,CaWO2
1.9784000000000008,Ca-O-W,3,CaWO3
0.0,Ca-O-W,3,CaWO3
4.2243,Ca-O-W,3,CaWO4
2.6781,Ca-O-W,3,CaWO4
4.3443,Ca-O-W,3,CaWO4
0.0,Ca-Y,2,CaY
2.2997000000000005,Ca-Fe-O-Y,4,CaY2(FeO2)4
4.0274,Be-Ca-O-Y,4,CaY2BeO5
4.1546,Ca-O-Y,3,CaY2O4
3.1247,Ca-O-Y,3,CaY2O4
3.6651,Ca-O-Y,3,CaY2O4
0.0,Ca-O-P-Y,4,CaY3(PO4)3
0.0,Ca-O-Ti-Y,4,CaY3Ti4O12
0.1231999999999999,Ag-Ca-O-Y,4,CaY4(AgO3)4
1.3867000000000005,Bi-Ca-O-Y,4,CaY4(BiO3)4
1.2218999999999998,Bi-Ca-O-Y,4,CaY4(BiO3)4
1.0593000000000004,Bi-Ca-O-Y,4,CaY4(BiO3)4
0.0,Ca-O-Sb-Y,4,CaY4Sb3O14
1.8387999999999995,Ca-Mo-O-Y,4,CaY5(MoO6)2
0.1786999999999992,Ca-Mo-O-Y,4,CaY5(MoO6)2
1.9019,Ca-Mo-O-Y,4,CaY5(MoO6)2
1.8908,Ca-Mo-O-Y,4,CaY5(MoO6)2
4.202299999999999,Al-Ca-O-Y,4,CaYAl3O7
4.307,Al-Ca-O-Y,4,CaYAl3O7
3.2897,Al-Ca-O-Y,4,CaYAlO4
4.3059,B-Ca-O-Y,4,CaYBO4
0.0,Ca-Cd-Y,3,CaYCd2
1.6731000000000005,Ca-Cu-Se-Y,4,CaYCu3Se4
3.1788,Ca-Ga-O-Y,4,CaYGa3O7
0.0,Ca-Hg-Y,3,CaYHg2
0.0,Ca-Mg-Y,3,CaYMg14
0.0,Ca-Mg-O-Y,4,CaYMg14O16
0.0,Ca-Mg-Y,3,CaYMg6
0.0,Ca-Mg-O-Y,4,CaYMg6O8
0.0,Ca-Mn-O-Y,4,CaYMn2O6
0.4279999999999995,Ca-Mn-O-Y,4,CaYMn2O6
0.0,Ca-Nb-O-Y,4,CaYNb2O7
0.0,Ca-O-Y,3,CaYO3
0.0,Ca-Pd-Y,3,CaYPd2
0.0,Ca-Pt-Y,3,CaYPt2
0.0,Ca-Rh-Y,3,CaYRh2
0.0,Ca-O-Si-Y,4,CaYSiO5
0.0663,Ca-O-Si-Y,4,CaYSiO5
0.0,Ca-O-Ti-Y,4,CaYTi2O6
0.0,Ca-Y-Zn,3,CaYZn2
0.0,Ca-Zn,2,CaZn
3.9421,C-Ca-O-Zn,4,CaZn(CO3)2
2.4804,Ca-Ge-O-Zn,4,CaZn(GeO3)2
0.0,Ca-Ge-O-Zn,4,CaZn(GeO3)4
4.0566,Ca-O-Si-Zn,4,CaZn(SiO3)2
0.0,Ca-Zn,2,CaZn11
0.0,Ca-Zn,2,CaZn13
0.0,Ca-Zn,2,CaZn2
1.533,Ca-Fe-O-Zn,4,CaZn2(FeO2)4
0.0093,Ca-Fe-O-Zn,4,CaZn2(FeO2)4
3.829,Ca-H-O-Zn,4,CaZn2(H5O4)2
3.303,Ca-H-O-Zn,4,CaZn2(H5O4)2
0.0,Ca-O-P-Zn,4,CaZn2(PO)2
3.7872,Ca-O-P-Zn,4,CaZn2(PO4)2
0.0,Ca-O-P-Zn,4,CaZn2(PO5)2
0.2294,Ca-O-Si-Zn,4,CaZn2(SiO4)2
0.0026999999999999,Ca-O-Zn,3,CaZn2O8
2.064,Ca-H-O-Si-Zn,5,CaZn2Si2HO7
0.0,Ca-Zn,2,CaZn3
0.0,Ca-Ni-Zn,3,CaZn3Ni2
1.3153,Ca-O-Zn,3,CaZn3O4
2.1424,Ca-Se-Zn,3,CaZn3Se4
0.0,Ca-O-Sn-Zn,4,CaZn4(SnO2)4
0.0,Ca-Zn,2,CaZn5
0.0,Ag-Ca-Zn,3,CaZnAg
2.6373999999999995,As-Ca-H-O-Zn,5,CaZnAsHO5
2.1738,Ca-F-Zn,3,CaZnF2
2.1173,Ca-F-Zn,3,CaZnF2
5.1236,Ca-F-Zn,3,CaZnF4
0.0,As-Ca-Fe-O-Zn,5,CaZnFe(AsO5)2
0.0,Ca-Ge-Zn,3,CaZnGe
1.5973000000000002,Ca-O-Zn,3,CaZnO2
0.0,Ca-O-Zn,3,CaZnO3
0.0,Ca-Pb-Zn,3,CaZnPb
0.0,Ca-Pd-Zn,3,CaZnPd
2.6853,Ca-O-S-Zn,4,CaZnSO
2.0547,Ca-Se-Zn,3,CaZnSe2
0.0,Ca-Si-Zn,3,CaZnSi
0.0,Ca-O-Si-Zn,4,CaZnSi3O8
3.4221000000000004,Ca-H-O-Si-Zn,5,CaZnSiH2O5
0.1781,Ca-O-Si-Zn,4,CaZnSiO5
0.0,Ca-Sn-Zn,3,CaZnSn
2.927,Ca-O-Sn-W-Zn,5,CaZnSnWO6
2.2314000000000003,Ca-O-Zr,3,CaZr4O9
6.6538,Ca-F-Zr,3,CaZrF6
3.678,Ca-Ge-O-Zr,4,CaZrGeO5
0.8696000000000002,Ca-Ge-O-Zr,4,CaZrGeO5
0.3938000000000006,Ca-N-Zr,3,CaZrN2
0.5202,Ca-In-Nb-O-Zr,5,CaZrNbInO6
3.8263,Ca-O-Zr,3,CaZrO3
3.2122,Ca-O-Zr,3,CaZrO3
0.0,Ca-Pd-Zr,3,CaZrPd
0.0,Ca-Rh-Zr,3,CaZrRh2
1.1878000000000002,Ca-S-Zr,3,CaZrS3
4.2287,Ca-O-Si-Zr,4,CaZrSi2O7
5.5631,Ca-F-Tl-Zr,4,CaZrTlF7
2.525,Ca-O-V-Zr,4,CaZrV2O8
0.0,Cd,1,Cd
1.7741000000000002,Ag-Cd-I,3,Cd(AgI2)2
0.5702,Ag-Cd-O,3,Cd(AgO2)2
0.427,Ag-Cd-O,3,Cd(AgO2)2
1.9349,As-Cd-O,3,Cd(AsO3)2
0.0,As-Cd-O,3,Cd(AsO4)4
1.7789,Au-Cd-F,3,Cd(AuF4)2
1.8309,Au-Cd-F,3,Cd(AuF6)2
3.9565,B-Cd-H,3,Cd(BH4)2
2.7302,B-Cd-O,3,Cd(BO2)2
0.0,Br-Cd-N,3,Cd(BrN)2
0.0,Br-Cd-O,3,Cd(BrO2)2
1.3165999999999998,Br-Cd-O,3,Cd(BrO2)2
4.5441,C-Cd-N,3,Cd(C2N3)2
4.6143,C-Cd-N,3,Cd(C2N3)2
3.3710000000000004,C-Cd-N,3,Cd(C4N3)2
5.9948,C-Cd-N,3,Cd(CN)2
6.0857,C-Cd-N,3,Cd(CN)2
3.3113,C-Cd-O,3,Cd(CO2)2
0.0,Cd-Co-N,3,Cd(CoN)2
1.4243,Cd-Co-O,3,Cd(CoO2)2
1.3245999999999998,Cd-Co-O,3,Cd(CoO2)2
0.3641000000000001,Cd-Co-O,3,Cd(CoO2)2
1.6511,Cd-Co-O,3,Cd(CoO2)2
0.2926999999999999,Cd-Co-O,3,Cd(CoO2)2
0.1413000000000002,Cd-Co-O,3,Cd(CoO2)2
0.0,Cd-Cu-O,3,Cd(Cu3O4)2
0.3201999999999998,Cd-Cu-O,3,Cd(CuO2)2
0.0,Cd-Cu-Se,3,Cd(CuSe)2
0.0,Cd-Fe-N,3,Cd(FeN)2
0.0,Cd-Fe-O,3,Cd(FeO2)2
1.8272,Cd-Fe-O,3,Cd(FeO2)2
1.4301,Cd-Fe-O,3,Cd(FeO2)2
0.8619000000000003,Cd-Fe-O,3,Cd(FeO2)2
1.4565,Cd-Fe-O,3,Cd(FeO2)2
1.5793,Cd-Ga-O,3,Cd(GaO2)2
1.2302,Cd-Ga-O,3,Cd(GaO2)2
2.1205,Cd-Ga-S,3,Cd(GaS2)2
0.0,Cd-Ga-Se,3,Cd(GaSe2)2
1.3487,Cd-Ga-Se,3,Cd(GaSe2)2
1.0357000000000005,Cd-Ga-Te,3,Cd(GaTe2)2
1.7019,Cd-H-O,3,Cd(HO)2
0.9847,Cd-H-O,3,Cd(HO)2
1.6967,Cd-H-O,3,Cd(HO)2
1.637,Cd-H-O,3,Cd(HO)2
1.2454999999999998,Cd-H-O,3,Cd(HO)2
1.7893,Cd-H-O,3,Cd(HO)2
0.3177999999999996,Cd-Hg-Te,3,Cd(HgTe2)2
0.1156,Cd-I-N,3,Cd(IN)4
1.0503999999999998,Cd-In-S,3,Cd(InS2)2
0.9564,Cd-In-Se,3,Cd(InSe2)2
0.0606999999999997,Cd-In-Se,3,Cd(InSe2)2
0.0,Cd-In-Se,3,Cd(InSe2)2
0.8707999999999998,Cd-In-Se,3,Cd(InSe2)2
0.7742,Cd-In-Se,3,Cd(InSe2)2
0.8481000000000005,Cd-In-Te,3,Cd(InTe2)2
0.0,Cd-Mo-S,3,Cd(Mo3S4)2
0.0,Cd-Mo-Se,3,Cd(Mo3Se4)2
0.0,Cd-N-O,3,Cd(N2O3)2
1.1988,Cd-Cl-N,3,Cd(NCl)2
1.2465000000000002,Cd-N-O,3,Cd(NO5)2
0.125,Cd-Ni-O,3,Cd(NiO2)2
3.7171,Cd-O-P,3,Cd(PO3)2
3.9676,Cd-O-P,3,Cd(PO3)2
0.0,Cd-O-P,3,Cd(PO5)2
0.0845000000000002,Cd-N-Pb,3,Cd(PbN)2
0.2137000000000002,Cd-O-Pt,3,Cd(PtO2)3
0.8366999999999996,Cd-O-Rh,3,Cd(RhO2)2
1.4136000000000006,Cd-O-Sb,3,Cd(SbO3)2
0.0,Cd-Ge-O,3,Cd2(GeO3)3
0.0,Ag-Au-Cd,3,Cd2AgAu
0.0,Ag-Cd-Pt,3,Cd2AgPt
0.0,Ag-Cd-Rh,3,Cd2AgRh
1.5916,As-Cd-O,3,Cd2As2O7
0.7736000000000001,As-Br-Cd,3,Cd2As3Br
0.7611999999999997,As-Cd-I,3,Cd2As3I
0.0,As-Cd-O,3,Cd2AsO2
1.7050999999999998,As-Cd-F-O,4,Cd2AsO4F
2.4657,B-Cd-O,3,Cd2B2O5
0.0,Bi-Cd-Se-Te,4,Cd2Bi2(TeSe)3
0.7775999999999996,Bi-Cd-O,3,Cd2Bi6O11
2.0584,As-Bi-Cd-O,4,Cd2BiAsO6
0.4754,Cd-Cu-O-P,4,Cd2Cu(PO4)2
0.0,Cd-Cu-O-S,4,Cd2Cu(SO)2
2.609,C-Cd-Fe-N,4,Cd2Fe(CN)6
1.9824,Cd-Ga-Se,3,Cd2Ga2Se5
0.0575999999999998,Ag-Cd-Ga-S-Se,5,Cd2GaAg(SeS)2
0.0,Ag-Cd-Ga-S-Se,5,Cd2GaAg(SeS)2
1.0437,Ag-Cd-Ga-S,4,Cd2GaAgS4
0.004,Ag-Cd-Ga-Se,4,Cd2GaAgSe4
0.0,Ag-Cd-Ga-Se,4,Cd2GaAgSe4
0.0,Cd-Cu-Ga-S,4,Cd2GaCuS4
0.0864999999999998,Cd-Cu-Ga-Se,4,Cd2GaCuSe4
0.3503000000000003,Cd-Cu-Ga-Te,4,Cd2GaCuTe4
1.0923000000000005,Cd-Ge-O,3,Cd2GeO4
2.616,Cd-H-O-S,4,Cd2H2SO6
0.0,Cd-Hg,2,Cd2Hg
0.1805000000000003,Ag-Cd-In-S,4,Cd2InAgS4
0.3005999999999997,Ag-Cd-In-Te,4,Cd2InAgTe4
0.0,Cd-Cu-In-Se,4,Cd2InCuSe4
0.1765999999999996,Cd-Cu-In-Te,4,Cd2InCuTe4
1.5881000000000003,Cd-Mo-O,3,Cd2Mo3O8
2.7112,Cd-Mo-O-W,4,Cd2MoWO8
2.4507,C-Cd-N-Os,4,Cd2Os(CN)6
0.0,Cd-O-Os,3,Cd2Os2O7
0.0,Cd-P,2,Cd2P
2.7139,Cd-O-P,3,Cd2P2O7
1.1583,Br-Cd-P,3,Cd2P3Br
1.2012,Cd-Cl-P,3,Cd2P3Cl
1.2134999999999998,Cd-Cl-P,3,Cd2P3Cl
1.0877000000000003,Cd-I-P,3,Cd2P3I
2.3713,Cd-F-O-P,4,Cd2PO4F
0.0,Cd-O-Pb,3,Cd2PbO4
0.0,Cd-Pd-Rh,3,Cd2PdRh
0.0,Cd-Pt-Rh,3,Cd2PtRh
0.0,Cd-O-Re,3,Cd2Re2O7
0.0,Au-Cd-Rh,3,Cd2RhAu
2.6444,C-Cd-N-Ru,4,Cd2Ru(CN)6
0.0,Cd-O-Ru,3,Cd2Ru2O7
0.6238999999999999,Cd-S,2,Cd2S
0.2756,Cd-O-S,3,Cd2SO6
0.3778000000000006,Cd-O-Sb,3,Cd2Sb2O7
0.5581,Cd-O-Sb,3,Cd2Sb2O7
0.3651999999999997,Cd-S-Sb,3,Cd2Sb6S11
0.7074,Cd-S-Se,3,Cd2SeS
0.0084999999999999,Cd-O-Si,3,Cd2SiO2
1.463,Cd-O-Si,3,Cd2SiO4
1.0232,Cd-O-Si,3,Cd2SiO4
1.5528999999999995,Cd-O-Si,3,Cd2SiO4
0.0,As-Cd-Ge-Sn,4,Cd2SnGeAs4
0.2449999999999996,Cd-O-Sn,3,Cd2SnO4
0.3997999999999999,Cd-O-Sn,3,Cd2SnO4
0.2204000000000001,Cd-O-Sn,3,Cd2SnO4
0.0,Cd-O-Tc,3,Cd2Tc2O7
0.0581999999999998,Cd-S-Te,3,Cd2TeS
0.2026000000000001,Cd-Se-Te,3,Cd2TeSe
0.1889,Cd-Se-Te,3,Cd2TeSe
0.4237000000000002,Cd-Se-Te,3,Cd2TeSe
0.0445999999999999,B-Cd-O,3,Cd3(BO2)7
1.5869999999999995,B-Cd-O,3,Cd3(BO3)2
1.4576,B-Cd-O,3,Cd3(BO3)2
1.1749,Cd-Cl-O,3,Cd3(ClO)2
1.2626,Cd-Cu-P,3,Cd3(CuP5)2
0.0,Cd-Fe-N,3,Cd3(FeN2)2
0.1192999999999999,Cd-Ga-N,3,Cd3(GaN2)2
0.1272999999999999,Cd-In-N,3,Cd3(InN2)2
1.1009,Cd-In-Se,3,Cd3(InSe3)2
0.0,Ag-Cd,2,Cd3Ag
0.0,As-Cd,2,Cd3As
0.0,As-Cd,2,Cd3As2
0.8399000000000001,As-Cd-I,3,Cd3AsI3
0.0,Au-Cd,2,Cd3Au