eg,chemsys,nelements,formula
1.5604000000000002,Br-Ir,2,IrBr3
0.0,C-Ir,2,IrC
0.0,C-Ir,2,IrC2
0.0,C-Ir,2,IrC3
0.0,C-Ir,2,IrC4
0.0,Cl-Ir,2,IrCl2
1.897,Cl-Ir,2,IrCl3
1.9582,Cl-Ir,2,IrCl3
1.6759999999999995,Cl-Ir,2,IrCl3
0.7277,Cl-Ir,2,IrCl3
1.1410999999999998,F-Ir,2,IrF3
0.0,F-Ir,2,IrF4
0.7714000000000003,F-Ir,2,IrF6
0.0,I-Ir,2,IrI
1.3846999999999996,I-Ir,2,IrI3
0.0,Ir-N,2,IrN
0.0,Ir-N,2,IrN2
0.3200000000000003,Ir-N,2,IrN2
0.0,Ir-N,2,IrN3
0.2412,Cl-Ir-N-O,4,IrN5(Cl2O)3
0.1993,Cl-Ir-N-O,4,IrN7ClO6
0.2764,Cl-Ir-N-O,4,IrN7ClO6
0.0,Ir-O,2,IrO2
0.0,Ir-O,2,IrO3
0.0,Ir-Os,2,IrOs
0.0,Br-Ir-Os,3,IrOs2Br
0.0,Ir-Os-Ru,3,IrOsRu
0.0,Ir-Os-W,3,IrOsW
0.0,Ir-Pb,2,IrPb
0.0,Br-Ir-Pb,3,IrPbBr
0.0,Ir-Pd,2,IrPd
0.0,Ir-Pd,2,IrPd3
0.0,Ir-Pt,2,IrPt
0.0,Ir-Pt,2,IrPt3
0.0,Ir-Rh,2,IrRh
0.0,Ir-Rh,2,IrRh3
0.0,Ir-Ru,2,IrRu
0.0,Ir-Ru,2,IrRu3
0.0,Ir-S,2,IrS2
0.5371000000000006,Ir-S,2,IrS2
0.0,Ir-Se,2,IrSe
0.0517000000000003,Ir-Se,2,IrSe2
0.0,Ir-W,2,IrW
0.0,Ir-O-W,3,IrWO6
0.0,K,1,K
0.0,As-Ir-K,3,K(AsIr)2
0.0,As-K-Rh,3,K(AsRh)2
0.0,As-K-Ru,3,K(AsRu)2
0.0,Au-K-O,3,K(AuO2)2
5.0082,B-H-K,3,K(BH)3
5.5284,B-H-K,3,K(BH)6
0.0,As-Co-K,3,K(CoAs)2
0.0,Co-K-O,3,K(CoO2)2
0.0,Co-K-P,3,K(CoP)2
0.0,Co-K-S,3,K(CoS)2
0.0,Co-K-Se,3,K(CoSe)2
0.0,Cr-K-S,3,K(CrS2)2
0.0,As-Cu-K,3,K(Cu2As)2
0.0,Cu-K-Sb,3,K(Cu2Sb)2
0.0,Cu-K-S,3,K(CuS)2
0.0,Cu-K-Se,3,K(CuSe)2
0.0,As-Fe-K,3,K(FeAs)2
0.0,Fe-K-P,3,K(FeP)2
0.0,Fe-K-S,3,K(FeS)2
0.0,Fe-K-Sb,3,K(FeSb3)4
0.0,Fe-K-Se,3,K(FeSe)2
0.0,Fe-K-Te,3,K(FeTe)2
0.0,I-K-O,3,K(IO3)3
0.0,Au-In-K,3,K(In3Au2)2
0.0,Au-In-K,3,K(InAu2)2
0.0,Ga-In-K,3,K(InGa)2
0.0,Ir-K-O,3,K(IrO2)4
0.0,K-Mo-O,3,K(Mo2O3)2
0.0,K-Mo-O,3,K(Mo2O3)4
0.0,K-Mo-S,3,K(Mo3S4)2
0.0,K-Mo-O,3,K(MoO3)3
0.0,K-Mo-S,3,K(MoS)3
0.0,K-Mo-Se,3,K(MoSe)3
0.3539999999999992,K-Nb-S,3,K(Nb3S4)2
0.3909000000000002,K-Nb-Se,3,K(Nb3Se4)2
0.0,K-Ni-S,3,K(NiS)2
0.0,K-Ni-Se,3,K(NiSe)2
0.0,K-Np-Se,3,K(NpSe3)2
0.0,K-O-Os,3,K(OsO3)2
0.0,Ir-K-P,3,K(PIr)2
0.0,K-P-Rh,3,K(PRh)2
0.0,K-P-Ru,3,K(PRu)2
0.0,K-O-Ru,3,K(RuO2)4
1.1172999999999995,K-Sb-Se,3,K(SbSe2)2
0.0,K-O-Si,3,K(SiO2)2
0.0,K-Pd-Si,3,K(SiPd)4
0.0,K-Pt-Si,3,K(SiPt)4
0.0,Au-K-Sn,3,K(SnAu)3
0.0,Au-K-Sn,3,K(SnAu2)2
1.1727,K-Se-Sn,3,K(SnSe2)2
0.0,K-Mo-Te,3,K(TeMo)3
0.0,K-Se-Th,3,K(ThSe3)2
0.0,K-Te-Th,3,K(ThTe3)2
0.0,K-Se-Ti,3,K(Ti3Se4)2
0.0,K-Se-U,3,K(USe3)2
0.0,K-S-V,3,K(VS2)2
0.5068000000000001,K-O-W,3,K(WO3)3
0.0,K-O-W,3,K(WO3)3
0.0,K-O-W,3,K(WO3)6
1.435,Co-K-O,3,K10Co4O9
0.0,K-Nb-S,3,K2(NbS2)3
0.0,K-S-Ta,3,K2(TaS2)3
0.0,Ag-K,2,K2Ag
1.6880000000000002,Ag-Ge-K-S,4,K2Ag2GeS4
0.1282999999999998,Ag-K-S,3,K2Ag4S3
0.0,Ag-K-Se,3,K2Ag4Se3
1.0719,Ag-As-K,3,K2AgAs
0.8026,Ag-As-Br-K,4,K2AgAsBr6
1.519,Ag-As-Cl-K,4,K2AgAsCl6
2.2292,Ag-As-F-K,4,K2AgAsF6
0.0,Ag-Au-Br-K,4,K2AgAuBr6
0.0,Ag-Au-Cl-K,4,K2AgAuCl6
0.0,Ag-Au-F-K,4,K2AgAuF6
0.6783000000000001,Ag-Bi-K,3,K2AgBi
1.5765,Ag-Bi-Br-K,4,K2AgBiBr6
2.0583,Ag-Bi-Cl-K,4,K2AgBiCl6
2.3982,Ag-Bi-F-K,4,K2AgBiF6
0.8096000000000001,Ag-Bi-I-K,4,K2AgBiI6
0.6126,Ag-F-K,3,K2AgF4
0.2533999999999999,Ag-F-K,3,K2AgF4
1.5151999999999997,Ag-F-Ir-K,4,K2AgIrF6
0.6656,Ag-Br-K-Mo,4,K2AgMoBr6
1.0353,Ag-Cl-K-Mo,4,K2AgMoCl6
2.5573,Ag-F-K-Mo,4,K2AgMoF6
0.6873999999999998,Ag-I-K-Mo,4,K2AgMoI6
1.232,Ag-K-P,3,K2AgP
0.0,Ag-F-K-Pd,4,K2AgPdF6
1.4182,Ag-F-K-Rh,4,K2AgRhF6
0.0,Ag-F-K-Ru,4,K2AgRuF6
1.1871,Ag-K-Sb,3,K2AgSb
1.1248,Ag-Br-K-Sb,4,K2AgSbBr6
1.6025,Ag-Cl-K-Sb,4,K2AgSbCl6
2.0454,Ag-F-K-Sb,4,K2AgSbF6
0.3809999999999998,Ag-I-K-Sb,4,K2AgSbI6
0.1899999999999999,Al-F-K-O,4,K2Al2O2F9
4.0223,Al-F-K-O,4,K2Al2O3F2
0.3795,Al-K-O,3,K2Al2O7
3.5034,Al-K-O-Sb,4,K2Al2Sb2O7
1.4617,Ag-Al-Br-K,4,K2AlAgBr6
2.4737,Ag-Al-Cl-K,4,K2AlAgCl6
3.0675,Ag-Al-F-K,4,K2AlAgF6
0.0,Al-Au-Br-K,4,K2AlAuBr6
0.8600000000000001,Al-Au-Cl-K,4,K2AlAuCl6
1.3271000000000002,Al-Au-F-K,4,K2AlAuF6
0.0,Al-Au-I-K,4,K2AlAuI6
1.1155,Al-Cu-F-K,4,K2AlCuF6
6.3239,Al-F-K,3,K2AlF5
2.8099,Al-B-Fe-H-K-O-P,7,K2AlFeB2P4(HO9)2
5.9924,Al-F-H-K-O,5,K2AlH2OF5
0.0,Al-Br-Hg-K,4,K2AlHgBr6
0.0,Al-Cl-Hg-K,4,K2AlHgCl6
0.0,Al-F-Hg-K,4,K2AlHgF6
1.7719,Al-Br-In-K,4,K2AlInBr6
2.9258,Al-Cl-In-K,4,K2AlInCl6
3.8745,Al-F-In-K,4,K2AlInF6
0.8125,Al-I-In-K,4,K2AlInI6
1.1785,Al-F-K-O,4,K2AlOF5
4.9518,Al-C-K-O-P,5,K2AlPCO7
2.8488,Al-Br-K-Tl,4,K2AlTlBr6
3.8301,Al-Cl-K-Tl,4,K2AlTlCl6
4.7545,Al-F-K-Tl,4,K2AlTlF6
1.5653,Al-I-K-Tl,4,K2AlTlI6
0.6457999999999999,As-K-Pd,3,K2As2Pd
0.3521000000000001,As-K-Pt,3,K2As2Pt
0.1518,As-Au-Br-K,4,K2AsAuBr6
0.2199999999999999,As-Au-Cl-K,4,K2AsAuCl6
0.7657,As-Au-F-K,4,K2AsAuF6
0.0,As-Au-I-K,4,K2AsAuI6
0.9988,As-Au-K-S,4,K2AsAuS4
4.0808,As-C-K-O-P,5,K2AsPCO7
0.0,Au-K,2,K2Au3
2.4621,B-C-K-N,4,K2B(CN)3
0.0,B-K-O-P,4,K2B(PO4)2
1.7669,B-H-K-N-O,5,K2B6H5NO2
0.0,Ba-Bi-K-O,4,K2Ba(BiO3)3
0.0,As-Ba-Fe-K,4,K2Ba(FeAs)6
0.1500000000000003,Ba-Cd-K-Sb,4,K2BaCdSb2
1.0293,Ba-Co-K-N-O,5,K2BaCo(NO2)6
0.0,Ba-Co-K-N-O,5,K2BaCo(NO2)6
0.2281,Ba-Cu-K-N-O,5,K2BaCu(NO2)6
0.918,Ba-Co-K-Li-N-O,6,K2BaLiCo(NO2)6
0.9163,Ba-Co-K-Li-N-O,6,K2BaLiCo(NO2)6
1.0719,Ba-Co-K-Li-N-O,6,K2BaLiCo(NO2)6
1.1227,Ba-Co-K-Li-N-O,6,K2BaLiCo(NO2)6
0.0,Ba-Co-K-Li-N-O,6,K2BaLiCo(NO2)6
0.1091999999999999,Ba-Co-K-Mg-N-O,6,K2BaMgCo(NO2)6
0.0,Ba-Co-K-Mg-N-O,6,K2BaMgCo(NO2)6
1.4136000000000002,Ba-K-N-Ni-O,5,K2BaNi(NO2)6
1.929,Ba-K-N-Ni-O,5,K2BaNi(NO2)6
0.8921000000000001,Ba-K-Sn-Te,4,K2BaSnTe4
0.0,Ba-Cl-K-O-V,5,K2BaV2ClO7
3.4891,Be-K-O,3,K2Be2O3
5.5671,Be-F-K-Pb,4,K2Be2PbF8
6.8658,Be-F-K,3,K2BeF4
6.9319,Be-F-K,3,K2BeF4
3.0937,Be-K-O,3,K2BeO2
0.0,Bi-K-O,3,K2Bi2O5
3.8253,Bi-F-K,3,K2Bi3F11
0.8705,Au-Bi-K,3,K2BiAu
0.389,Au-Bi-Br-K,4,K2BiAuBr6
0.9632999999999998,Au-Bi-Cl-K,4,K2BiAuCl6
1.0663,Au-Bi-F-K,4,K2BiAuF6
3.626,Bi-C-K-O-P,5,K2BiPCO7
4.487,Br-Cl-K,3,K2BrCl
0.9144,Br-Cl-F-K,4,K2BrCl6F
0.0,C-K,2,K2C
3.0066,C-K-N-O,4,K2C7N4O
3.1433,C-K-N,3,K2CN2
3.2835,C-K-O,3,K2CO3
3.649,C-K-O,3,K2CO3
3.6288,C-K-O,3,K2CO3
4.353400000000001,C-Ca-K-O,4,K2Ca(CO3)2
2.4394,Ca-K-N-O,4,K2Ca(NO2)4
4.7388,C-Ca-K-O,4,K2Ca2(CO3)3
0.0,C-Ca-F-K-O,5,K2Ca2C2O3F2
0.6944000000000001,Ca-K-Mg-O-S,5,K2Ca2Mg(S2O9)2
2.4694000000000003,Ca-H-K-Mg-O-S,6,K2Ca2MgH2(SO4)4
4.7685,Ca-K-O-Si,4,K2Ca3Si3O10
4.3804,Ca-K-O-Si,4,K2Ca4Si8O21
2.0773,Ca-K-O-Si-U,5,K2Ca4U(SiO4)4
0.2538,Ca-Cu-K-N-O,5,K2CaCu(NO2)6
5.3836,Ca-H-K-O-S,5,K2CaH2S2O9
4.401999999999999,Ca-H-K-Mg-O-Si,6,K2CaMg5Si8(HO12)2
0.4659999999999993,Ca-K-Nb-Nd-O,5,K2CaNd4Nb2O12
0.0,Ca-K-Nb-Nd-O,5,K2CaNd4Nb2O12
1.7049,Ca-K-N-Ni-O,5,K2CaNi(NO2)6
0.0,Ca-K-O-Pr,4,K2CaPrO4
0.5155000000000001,Ca-K-O-S,4,K2CaS2O9
0.0,Ca-K-O-S,4,K2CaS2O9
0.0,Cd-Cu-K-O-S,5,K2Cd2Cu(SO)2
0.6513,Cd-K-O,3,K2Cd2O3
0.0,As-Cd-K-Sn,4,K2Cd3SnAs4
0.2771000000000001,As-Cd-K,3,K2CdAs2
0.0,Au-Cd-K,3,K2CdAu
2.9045,Cd-K-N,3,K2CdN12
2.8637,Cd-K-N,3,K2CdN12
1.3562,Cd-K-O,3,K2CdO2
3.7795,Cd-K-O-P,4,K2CdP2O7
0.0,Cd-K-Pb,3,K2CdPb
0.0,Cd-K-Sb,3,K2CdSb2
0.0594999999999998,Cd-K-Sn,3,K2CdSn
1.6721,Cd-K-Se-Sn,4,K2CdSnSe4
0.5588999999999995,Ce-Cu-K-S,4,K2Ce(CuS2)2
1.4413999999999998,Ce-K-O-P,4,K2Ce(PO4)2
0.0941999999999998,Ce-Fe-K-O,4,K2Ce2Fe4O11
2.5986,Ag-Br-Ce-K,4,K2CeAgBr6
2.8498,Ag-Ce-Cl-K,4,K2CeAgCl6
0.0,Ag-Ce-F-K,4,K2CeAgF6
0.2137000000000002,Ag-Ce-I-K,4,K2CeAgI6
2.2375000000000003,Au-Ce-Cl-K,4,K2CeAuCl6
0.2116000000000002,Br-Ce-Cu-K,4,K2CeCuBr6
1.5332000000000003,Ce-Cl-Cu-K,4,K2CeCuCl6
0.3701000000000003,Ce-Cu-I-K,4,K2CeCuI6
2.1176,Ce-F-K,3,K2CeF6
0.0,C-Ce-K-O-P,5,K2CePCO7
0.7162,Co-K-O-S,4,K2Co(SO5)2
0.0,Co-K-O-Se,4,K2Co(SeO3)2
1.2563999999999995,Co-K-O-Se,4,K2Co(SeO3)2
2.6268,Co-K-O-Se,4,K2Co2(SeO3)3
0.0,Co-F-K,3,K2CoF4
1.1713,Co-F-K,3,K2CoF6
0.6262,Co-H-K-O-S,5,K2CoH2(SO4)2
0.883,Co-H-K-O-S,5,K2CoH2(SO5)2
2.7402,Co-H-K-O-S,5,K2CoH2(SO5)2
1.0581,Co-H-K-O-Se,5,K2CoH2(SeO5)2
0.3138999999999999,Co-H-K-O-Se,5,K2CoH4(SeO5)2
3.5964,C-Co-H-K-O,5,K2CoH8(CO5)2
0.0,Co-F-Hg-K,4,K2CoHgF6
0.1699000000000001,Co-K-O,3,K2CoO2
0.1251999999999999,Co-K-O,3,K2CoO3
3.1642,Co-H-K-O-P,5,K2CoP2(H3O4)2
3.4852,Co-H-K-O-P,5,K2CoP4(HO2)8
0.9361,C-Co-K-O-P,5,K2CoPCO7
1.0766,Co-K-N-O-Pb,5,K2CoPb(NO2)6
0.0,Co-K-N-O-Pb,5,K2CoPb(NO2)6
0.0,Co-K-S,3,K2CoS2
0.0,Co-K-Se,3,K2CoSe2
0.0,Cd-Cr-H-K-O,5,K2Cr2Cd(H2O5)2
0.1787999999999998,Cr-K-Ni-O,4,K2Cr2NiO10
0.6522999999999999,Cr-K-O,3,K2Cr2O5
1.4939,Cr-K-O,3,K2Cr2O7
2.7644,Cr-K-O,3,K2Cr2O7
2.5108,Cr-K-O,3,K2Cr2O7
2.1231,Cl-Cr-F-K,4,K2Cr3(ClF3)2
0.2705999999999999,Cr-K-O,3,K2Cr3O9
0.7229,Cd-Cr-K-O,4,K2Cr4CdO16
1.9353,Co-Cr-H-K-O,5,K2Cr4Co(HO4)4
2.8775,Ag-Cr-F-K,4,K2CrAgF6
1.5844,Au-Cr-F-K,4,K2CrAuF6
0.6825999999999999,Cr-Cu-F-K,4,K2CrCuF6
0.0,Cr-F-K,3,K2CrF6
2.0316,Cr-F-H-K,4,K2CrH2F8
0.0,Cr-F-Hg-K,4,K2CrHgF6
3.0699,Cr-K-O,3,K2CrO4
2.4206,Cr-F-K-O,4,K2CrOF5
2.1462000000000003,C-Cr-K-O-P,5,K2CrPCO7
0.0,Br-Cu-F-K,4,K2Cu(BrF)2
0.5492000000000001,C-Cu-K-O,4,K2Cu(CO3)2
0.6159,C-Cu-K-O,4,K2Cu(CO3)2
0.0958,Cl-Cu-K-O,4,K2Cu(Cl2O)2
0.0005999999999999,Cl-Cu-K-O,4,K2Cu(Cl2O)2
0.3002,Cl-Cu-F-K,4,K2Cu(ClF)2
0.0,Cl-Cu-F-K,4,K2Cu(ClF)2
0.0,Cl-Cu-H-K,4,K2Cu(HCl2)2
0.0,Cu-F-I-K,4,K2Cu(IF)2
0.0,As-Cu-K-O,4,K2Cu3(AsO3)4
0.0912999999999999,Cu-K-O-Se,4,K2Cu3(SeO3)4
0.3172000000000001,Cu-Ge-K-O,4,K2Cu3Ge5O14
1.0674,As-Cu-K,3,K2CuAs
0.9780000000000002,As-Cu-F-K,4,K2CuAsF6
0.0,Au-Cl-Cu-K,4,K2CuAuCl6
0.0,Au-Cu-F-K,4,K2CuAuF6
0.8862000000000001,Bi-Br-Cu-K,4,K2CuBiBr6
1.1616999999999995,Bi-Cl-Cu-K,4,K2CuBiCl6
0.8218000000000001,Bi-Cu-F-K,4,K2CuBiF6
0.8293000000000001,Bi-Cu-I-K,4,K2CuBiI6
0.0,Cu-F-K,3,K2CuF4
0.5601,Cu-F-K,3,K2CuF4
0.0,Cu-H-K,3,K2CuH4
0.6993,Cl-Cu-H-K-O,5,K2CuH4(Cl2O)2
0.0,Cu-I-K-O,4,K2CuI2O
0.3972,Br-Cu-K-Mo,4,K2CuMoBr6
0.7574000000000001,Cl-Cu-K-Mo,4,K2CuMoCl6
0.0870000000000001,Cu-I-K-Mo,4,K2CuMoI6
0.0,Cu-K-Ni-O-S,5,K2CuNi2(SO)2
0.0,Cu-K-O,3,K2CuO2
1.1421,Cu-K-P,3,K2CuP
0.0,Cu-K-O-P,4,K2CuP2O7
0.0124,Cu-H-K-O-P,5,K2CuP4H8O15
0.0811,C-Cu-K-O-P,5,K2CuPCO7
0.0,Cu-K-N-O-Pb,5,K2CuPb(NO2)6
1.1104,Cu-K-Sb,3,K2CuSb
0.4006999999999998,Br-Cu-K-Sb,4,K2CuSbBr6
0.6278999999999999,Cl-Cu-K-Sb,4,K2CuSbCl6
0.8543000000000003,Cu-F-K-Sb,4,K2CuSbF6
0.6999,Cu-I-K-Sb,4,K2CuSbI6
0.0256999999999999,Cu-K-O-Te,4,K2CuTeO7
0.2357,Cu-K-O-Te,4,K2CuTeO7
0.8801999999999999,Cu-Dy-K-S,4,K2Dy4Cu4S9
0.9616000000000002,Cu-Dy-K-S,4,K2Dy4Cu4S9
0.7189999999999999,Cu-Dy-K-S,4,K2Dy4Cu4S9
0.7292999999999998,Cu-Dy-K-Se,4,K2Dy4Cu4Se9
3.6341,Ag-Cl-Dy-K,4,K2DyAgCl6
2.1841,Au-Cl-Dy-K,4,K2DyAuCl6
2.4628999999999994,Cl-Cu-Dy-K,4,K2DyCuCl6
4.3407,C-Dy-K-O-P,5,K2DyPCO7
3.6443,Ag-Cl-Er-K,4,K2ErAgCl6
2.1632,Au-Cl-Er-K,4,K2ErAuCl6
2.4197,Cl-Cu-Er-K,4,K2ErCuCl6
6.7896,Er-F-K,3,K2ErF5
4.4968,C-Er-K-O-P,5,K2ErPCO7
0.0,Er-K-O-Sb,4,K2ErSbO7
0.0,Eu-K-O,3,K2Eu2O3
0.0,Ag-Cl-Eu-K,4,K2EuAgCl6
0.0,Au-Cl-Eu-K,4,K2EuAuCl6
0.0,Cl-Cu-Eu-K,4,K2EuCuCl6
3.5061,C-Fe-K-O,4,K2Fe(CO)4
0.0,Fe-K-S-Se,4,K2Fe2SeS3
0.8588,Fe-K-O,3,K2Fe4O7
2.1064,Ag-F-Fe-K,4,K2FeAgF6
1.0919,Au-F-Fe-K,4,K2FeAuF6
0.0,C-Co-Fe-K-N,5,K2FeCo(CN)6
0.6179,C-Cu-Fe-K-N,5,K2FeCu(CN)6
0.0,C-Cu-Fe-K-N,5,K2FeCu(CN)6
0.0,C-Cu-Fe-K,4,K2FeCuC12
2.2319,F-Fe-K,3,K2FeF5
2.9703,F-Fe-K,3,K2FeF5
4.0494,Fe-H-K-O-S,5,K2FeH4(SO5)2
0.964,Fe-H-K-O-S,5,K2FeH4(SO5)2
0.0,Fe-H-K-O-S,5,K2FeH4(SO5)2
0.0,F-Fe-Hg-K,4,K2FeHgF6
1.5027,C-Fe-K-N-Ni,5,K2FeNi(CN)6
1.27,Fe-K-O,3,K2FeO4
0.9589,F-Fe-K-O,4,K2FeOF5
2.9297,F-Fe-H-K-O-P,6,K2FeP2H3(O4F)2
0.3218999999999998,F-Fe-H-K-O-P,6,K2FeP2H3(O4F)2
1.8518,C-Fe-K-O-P,5,K2FePCO7
0.2106999999999999,Ga-K,2,K2Ga3
0.0236,Ag-Br-Ga-K,4,K2GaAgBr6
1.1817,Ag-Cl-Ga-K,4,K2GaAgCl6
2.243,Ag-F-Ga-K,4,K2GaAgF6
0.0,Ag-Ga-I-K,4,K2GaAgI6
0.0,Au-Br-Ga-K,4,K2GaAuBr6
0.0,Au-Cl-Ga-K,4,K2GaAuCl6
0.6779000000000001,Au-F-Ga-K,4,K2GaAuF6
0.0,Au-Ga-I-K,4,K2GaAuI6
0.2187999999999998,Cu-F-Ga-K,4,K2GaCuF6
0.0,Br-Ga-Hg-K,4,K2GaHgBr6
0.0,Cl-Ga-Hg-K,4,K2GaHgCl6
0.0,F-Ga-Hg-K,4,K2GaHgF6
0.0,Ga-Hg-I-K,4,K2GaHgI6
0.6926000000000001,F-Ga-K-O,4,K2GaOF5
4.9272,F-Ga-H-K-O-P,6,K2GaP2H3(O4F)2
3.4805,C-Ga-K-O-P,5,K2GaPCO7
1.477,Gd-K-Mg-Mo-O,5,K2Gd2Mg(MoO4)4
1.3071000000000002,Gd-K-Mg-Mo-O,5,K2Gd2Mg(MoO4)4
1.6099,Gd-K-Mg-Mo-O,5,K2Gd2Mg(MoO4)4
1.5861999999999998,Au-Cl-Gd-K,4,K2GdAuCl6
0.3877999999999999,Cl-Cu-Gd-K,4,K2GdCuCl6
3.1784000000000003,Ge-I-K-O,4,K2Ge(IO3)6
2.0371,Ge-K-O,3,K2Ge2O3
3.1648,Ge-K-O-Pb,4,K2Ge2Pb2O7
3.8683,B-Ge-K-O,4,K2Ge3(BO5)2
0.8442000000000001,As-Ge-K,3,K2GeAs2
5.899800000000001,F-Ge-K,3,K2GeF6
5.799799999999999,F-Ge-K,3,K2GeF6
1.7264,Ge-K-Se,3,K2GeSe3
3.3984,C-H-K-O,4,K2H2C2O5
4.766500000000001,C-F-H-K-O,5,K2H3CO4F
0.1149999999999999,H-I-K-O,4,K2H4IO5
3.6266,H-I-K-O,4,K2H4IO5
0.1345,H-K-O-Os,4,K2H4OsO6
2.424,H-K-Pd,3,K2H4Pd
2.3,H-K-N-O-Pd,5,K2H4Pd(N2O5)2
2.6017,H-K-Pt,3,K2H4Pt
2.994,H-K-Pt,3,K2H4Pt
2.1354,H-K-O-Pb,4,K2H6PbO6
3.9976,H-K-Pt,3,K2H6Pt
3.5348,Br-H-K-O,4,K2HBrO
4.5359,H-K-N-O-S,5,K2HS2NO6
5.2708,H-K-N-O-S,5,K2HS2NO6
5.0771,H-K-N-O-S,5,K2HS2NO6
6.4694,F-Hf-K,3,K2HfF6
6.8994,F-Hf-K,3,K2HfF6
6.8346,F-Hf-K,3,K2HfF6
6.7637,F-Hf-K,3,K2HfF6
3.995200000000001,Hf-K-O,3,K2HfO3
1.5507,Ge-Hg-K-S,4,K2Hg3(GeS4)2
3.3100000000000005,C-Hg-K-N-O,5,K2Hg3C8(NO)8
0.0,Hg-K,2,K2Hg7
0.0,As-Br-Hg-K,4,K2HgAsBr6
0.0,As-Cl-Hg-K,4,K2HgAsCl6
0.0,As-F-Hg-K,4,K2HgAsF6
0.0,As-Hg-I-K,4,K2HgAsI6
0.0,Au-Hg-K,3,K2HgAu
0.0,Au-Br-Hg-K,4,K2HgAuBr6
0.0,Au-F-Hg-K,4,K2HgAuF6
0.0,Bi-Br-Hg-K,4,K2HgBiBr6
0.0,Bi-Cl-Hg-K,4,K2HgBiCl6
0.0,Bi-F-Hg-K,4,K2HgBiF6
0.0,Bi-Hg-I-K,4,K2HgBiI6
2.1749,Cl-H-Hg-K,4,K2HgHCl4
0.0,F-Hg-Ir-K,4,K2HgIrF6
0.0,F-Hg-K-Mo,4,K2HgMoF6
2.0773,Hg-K-O,3,K2HgO2
0.0,F-Hg-K-Pd,4,K2HgPdF6
0.0,F-Hg-K-Rh,4,K2HgRhF6
0.2035,Cl-Hg-K-O-S,5,K2HgS(ClO2)2
1.2077,Hg-K-S,3,K2HgS4
0.0,Br-Hg-K-Sb,4,K2HgSbBr6
0.0,Cl-Hg-K-Sb,4,K2HgSbCl6
0.0,F-Hg-K-Sb,4,K2HgSbF6
0.0,Hg-I-K-Sb,4,K2HgSbI6
0.8687000000000005,Cu-Ho-K-S,4,K2Ho4Cu4S9
0.8684000000000003,Cu-Ho-K-S,4,K2Ho4Cu4S9
4.2068,C-Ho-K-O-P,5,K2HoPCO7
0.0,Ho-K-O-Sb,4,K2HoSbO7
0.5621,I-K-O,3,K2I2O3
0.0,I-K-O,3,K2IO9
0.2343,Ag-Br-In-K,4,K2InAgBr6
1.2922,Ag-Cl-In-K,4,K2InAgCl6
1.6678000000000002,Ag-F-In-K,4,K2InAgF6
0.0,Ag-I-In-K,4,K2InAgI6
0.5635999999999999,As-Br-In-K,4,K2InAsBr6
0.5739999999999998,As-Cl-In-K,4,K2InAsCl6
1.9966,As-F-In-K,4,K2InAsF6
0.0,As-I-In-K,4,K2InAsI6
0.0,Au-Br-In-K,4,K2InAuBr6
0.0,Au-Cl-In-K,4,K2InAuCl6
0.3609,Au-F-In-K,4,K2InAuF6
0.0,Au-I-In-K,4,K2InAuI6
2.3638000000000003,Bi-F-In-K,4,K2InBiF6
0.0,Br-Cu-In-K,4,K2InCuBr6
0.0444999999999999,Cl-Cu-In-K,4,K2InCuCl6
1.0688,Br-Ga-In-K,4,K2InGaBr6
1.7475,Cl-Ga-In-K,4,K2InGaCl6
2.5562,F-Ga-In-K,4,K2InGaF6
0.1559999999999999,Ga-I-In-K,4,K2InGaI6
0.0,Br-Hg-In-K,4,K2InHgBr6
0.0,Cl-Hg-In-K,4,K2InHgCl6
0.0,F-Hg-In-K,4,K2InHgF6
0.0,Hg-I-In-K,4,K2InHgI6
0.6289,Br-In-K-Sb,4,K2InSbBr6
1.2295000000000005,Cl-In-K-Sb,4,K2InSbCl6
2.1143,F-In-K-Sb,4,K2InSbF6
0.5200999999999998,I-In-K-Sb,4,K2InSbI6
0.5491999999999999,Au-F-Ir-K,4,K2IrAuF6
0.0,F-Ir-K,3,K2IrF6
0.6828000000000001,Ir-K-N,3,K2IrN2
0.0,K-La-Mg-O-Ti,5,K2La2MgTi2O8
0.0,K-La-Mg-O-Ti,5,K2La2MgTi3O10
2.0398,K-La-O-Ti,4,K2La2Ti3O10
2.7588000000000004,K-La-O,3,K2La4O7
3.4632,Ag-Cl-K-La,4,K2LaAgCl6
2.324,Au-Cl-K-La,4,K2LaAuCl6
2.1253999999999995,Cl-Cu-K-La,4,K2LaCuCl6
4.1823,C-K-La-O-P,5,K2LaPCO7
1.9157,K-Li-O-Pb,4,K2Li14Pb3O14
4.2801,K-Li-O-Zr,4,K2Li14Zr3O14
0.0,Br-Cu-K-Li-O,5,K2Li2Cu(BrO)2
0.0,Cu-I-K-Li-O,5,K2Li2Cu(IO)2
1.4741000000000002,K-Li-Ni-O,4,K2Li3NiO4
2.1501,K-Li-O-U,4,K2Li4UO6
7.217799999999999,Al-F-K-Li,4,K2LiAlF6
7.2639,Al-F-K-Li,4,K2LiAlF6
0.0,Al-F-K-Li,4,K2LiAlF6
7.4418,Al-F-K-Li,4,K2LiAlF6
2.5761,Al-H-K-Li,4,K2LiAlH6
2.4373,Al-H-K-Li,4,K2LiAlH6
1.8853,Al-K-Li-P,4,K2LiAlP2
4.5591,As-F-K-Li,4,K2LiAsF6
0.0,Au-Cl-K-Li,4,K2LiAuCl6
0.4498999999999999,Au-F-K-Li,4,K2LiAuF6
3.5239000000000003,B-K-Li-O,4,K2LiBO3
2.9174,Bi-Br-K-Li,4,K2LiBiBr6
3.6182,Bi-Cl-K-Li,4,K2LiBiCl6
4.8822,Bi-F-K-Li,4,K2LiBiF6
1.9247,Bi-I-K-Li,4,K2LiBiI6
0.2916000000000003,Br-Ce-K-Li,4,K2LiCeBr6
0.3230999999999997,Ce-Cl-K-Li,4,K2LiCeCl6
0.5647999999999995,Ce-F-K-Li,4,K2LiCeF6
0.2547999999999999,Ce-I-K-Li,4,K2LiCeI6
0.0,Co-F-K-Li,4,K2LiCoF6
4.1644,Cr-F-K-Li,4,K2LiCrF6
0.9248,Cu-F-K-Li,4,K2LiCuF6
5.0198,Cl-Dy-K-Li,4,K2LiDyCl6
5.0496,Cl-Er-K-Li,4,K2LiErCl6
0.0,Cl-Eu-K-Li,4,K2LiEuCl6
3.9473,F-Fe-K-Li,4,K2LiFeF6
2.0402,Fe-K-Li-O,4,K2LiFeO3
6.1271,F-Ga-K-Li,4,K2LiGaF6
2.8434,Cl-Gd-K-Li,4,K2LiGdCl6
0.6496,H-K-Li-O-Se,5,K2LiH2(SeO3)2
0.2229000000000001,H-K-Li-O-Se,5,K2LiH2(SeO3)2
0.7019000000000001,H-K-Li-O-Se,5,K2LiH2(SeO3)2
0.7278,H-K-Li-O-Se,5,K2LiH2(SeO3)2
0.0,H-K-Li-O-Se,5,K2LiH2(SeO3)2
0.3709,H-K-Li-O-Se,5,K2LiH2(SeO3)2
0.6477999999999999,H-K-Li-O-Se,5,K2LiH2(SeO3)2
2.865,Cl-In-K-Li,4,K2LiInCl6
5.2984,F-In-K-Li,4,K2LiInF6
2.0832,F-Ir-K-Li,4,K2LiIrF6
0.0,K-La-Li-O,4,K2LiLa4O7
4.554,Cl-K-La-Li,4,K2LiLaCl6
5.0952,Cl-K-Li-Lu,4,K2LiLuCl6
0.0,K-Li-Mn-O,4,K2LiMn2O4
1.1093000000000002,K-Li-Mn-O,4,K2LiMn2O4
0.687,K-Li-Mn-O,4,K2LiMn2O4
0.0,F-K-Li-Mn,4,K2LiMnF6
1.2722,Br-K-Li-Mo,4,K2LiMoBr6
1.4862,Cl-K-Li-Mo,4,K2LiMoCl6
4.4161,F-K-Li-Mo,4,K2LiMoF6
0.9740000000000002,I-K-Li-Mo,4,K2LiMoI6
0.0676000000000001,C-K-Li-Nb-O-P,6,K2LiNb2P2(CO7)2
0.0291000000000001,C-K-Li-Nb-O-P,6,K2LiNb2P2(CO7)2
0.0,F-K-Li-Nb,4,K2LiNbF6
0.0,K-Li-Nb-Nd-O,5,K2LiNd4Nb2O12
0.2183999999999999,K-Li-Nb-Nd-O,5,K2LiNd4Nb2O12
3.973,Br-K-Li-Nd,4,K2LiNdBr6
4.8605,Cl-K-Li-Nd,4,K2LiNdCl6
6.379099999999999,F-K-Li-Nd,4,K2LiNdF6
2.9488000000000003,I-K-Li-Nd,4,K2LiNdI6
0.0,F-K-Li-Ni,4,K2LiNiF6
0.0,F-K-Li-Pd,4,K2LiPdF6
0.3787,F-K-Li-Pd,4,K2LiPdF6
3.9531,Br-K-Li-Pr,4,K2LiPrBr6
4.8264,Cl-K-Li-Pr,4,K2LiPrCl6
2.9382,I-K-Li-Pr,4,K2LiPrI6
1.7665,F-K-Li-Rh,4,K2LiRhF6
0.0,F-K-Li-Ru,4,K2LiRuF6
0.0,K-Li-S,3,K2LiS2
0.0,F-K-Li-O-S,5,K2LiS2(O2F)2
0.2739,F-K-Li-O-S,5,K2LiS2(O2F)2
1.0342,F-K-Li-O-S,5,K2LiS2(O2F)2
1.0414,F-K-Li-O-S,5,K2LiS2(O2F)2
0.9722,F-K-Li-O-S,5,K2LiS2(O2F)2
0.8359000000000001,F-K-Li-O-S,5,K2LiS2(O2F)2
0.8435,F-K-Li-O-S,5,K2LiS2(O2F)2
0.6568999999999999,F-K-Li-O-S,5,K2LiS2(O2F)2
1.0016999999999998,F-K-Li-O-S,5,K2LiS2(O2F)2
2.3188,Br-K-Li-Sb,4,K2LiSbBr6
2.9339,Cl-K-Li-Sb,4,K2LiSbCl6
4.1086,F-K-Li-Sb,4,K2LiSbF6
1.7108,I-K-Li-Sb,4,K2LiSbI6
3.7414,Cl-K-Li-Sc,4,K2LiScCl6
6.773300000000001,F-K-Li-Sc,4,K2LiScF6
0.0,K-Li-Se,3,K2LiSe2
4.9171,Cl-K-Li-Sm,4,K2LiSmCl6
0.0,Br-K-Li-Ta,4,K2LiTaBr6
0.0,Cl-K-Li-Ta,4,K2LiTaCl6
0.3073999999999999,F-K-Li-Ta,4,K2LiTaF6
0.0,I-K-Li-Ta,4,K2LiTaI6
4.9973,Cl-K-Li-Tb,4,K2LiTbCl6
0.0,F-K-Li-Ti,4,K2LiTiF6
0.5592999999999999,Br-K-Li-Tl,4,K2LiTlBr6
1.5798,Cl-K-Li-Tl,4,K2LiTlCl6
3.5058,F-K-Li-Tl,4,K2LiTlF6
5.0647,Cl-K-Li-Tm,4,K2LiTmCl6
0.0,F-K-Li-V,4,K2LiVF6
3.9761,K-Li-O-V,4,K2LiVO4
4.036,Br-K-Li-Y,4,K2LiYBr6
4.9248,Cl-K-Li-Y,4,K2LiYCl6
6.697100000000001,F-K-Li-Y,4,K2LiYF6
2.9702,I-K-Li-Y,4,K2LiYI6
3.6296,Ag-Cl-K-Lu,4,K2LuAgCl6
2.0732,Au-Cl-K-Lu,4,K2LuAuCl6
2.4709000000000003,Cl-Cu-K-Lu,4,K2LuCuCl6
6.7715,F-K-Lu,3,K2LuF5
4.5152,C-K-Lu-O-P,5,K2LuPCO7
0.0,K-Lu-O-Sb,4,K2LuSbO7
4.304,C-K-Mg-O,4,K2Mg(CO3)2
4.0486,C-K-Mg-O,4,K2Mg(CO3)2
0.1884999999999999,Co-K-Mg-O,4,K2Mg(CoO2)2
1.5473,Co-K-Mg-O,4,K2Mg(CoO2)2
1.7828,Co-K-Mg-O,4,K2Mg(CoO2)2
1.0543999999999998,Co-K-Mg-O,4,K2Mg(CoO2)2
1.3832999999999998,Co-K-Mg-O,4,K2Mg(CoO2)2
1.3695,Co-K-Mg-O,4,K2Mg(CoO2)2
1.7495,Co-K-Mg-O,4,K2Mg(CoO2)2
0.0,Co-K-Mg-O,4,K2Mg(CoO2)2
0.0,Cu-K-Mg-O,4,K2Mg(CuO2)2
0.0773999999999999,Cu-K-Mg-O,4,K2Mg(CuO2)2
1.4539,Fe-K-Mg-O,4,K2Mg(FeO2)2
0.2029,Fe-K-Mg-O,4,K2Mg(FeO2)2
0.6601000000000001,Fe-K-Mg-O,4,K2Mg(FeO2)2
0.0,Fe-K-Mg-S,4,K2Mg(FeS2)2
0.0884000000000002,K-Mg-O-Re,4,K2Mg(ReO4)2
0.1455000000000001,K-Mg-O-Sb,4,K2Mg(SbO3)2
0.0331000000000001,K-Mg-O-Sb,4,K2Mg(SbO3)2
2.888,K-Mg-O,3,K2Mg2O3
2.923,K-Mg-O,3,K2Mg2O3
4.6783,K-Mg-O-Si,4,K2Mg2Si2O7
0.0,K-Mg-Sn,3,K2Mg5Sn3
0.0,As-K-Mg,3,K2MgAs2
4.7652,Cl-K-Mg,3,K2MgCl4
0.0,Cr-H-K-Mg-O,5,K2MgCr2(H2O5)2
0.0148999999999999,Cr-H-K-Mg-O,5,K2MgCr2(H2O5)2
0.9815,Cd-Cr-H-K-Mg-O,6,K2MgCr2Cd(H2O5)2
1.0840999999999998,Cd-Cr-H-K-Mg-O,6,K2MgCr2Cd(H2O5)2
0.0,Cu-F-K-Mg,4,K2MgCuF6
6.405900000000001,F-K-Mg,3,K2MgF4
1.2704,Fe-K-Mg-O,4,K2MgFe4O7
3.4385,H-K-Mg,3,K2MgH4
3.3616,H-I-K-Mg-O,5,K2MgH4(I2O7)2
4.5358,C-H-K-Mg-O,5,K2MgH8(CO5)2
0.0,K-Mg-Mn-O,4,K2MgMn2O4
3.4043,H-K-Mg-Mn-O-P,6,K2MgMn2P6(HO10)2
3.6782,H-K-Mg-Mn-O-P,6,K2MgMn2P6(HO10)2
3.843,H-K-Mg-Mn-O-P,6,K2MgMn2P6(HO10)2
3.5628,H-K-Mg-Mn-O-P,6,K2MgMn2P6(HO10)2
1.2494,H-K-Mg-Mn-O-V,6,K2MgMn3V2(HO5)2
1.6168999999999998,H-K-Mg-Mn-O-V,6,K2MgMn3V2(HO5)2
2.021,H-I-K-Mg-Mn-O,6,K2MgMnH4(I2O7)2
4.3482,H-K-Mg-Mo-O,5,K2MgMo2(H2O5)2
0.0,H-K-Mg-Mo-O,5,K2MgMo2(H2O5)2
3.5278,H-K-Mg-Mo-O,5,K2MgMo2(H2O5)2
1.0789,Cl-K-Mg-Mo-O-P,6,K2MgMo2P2(ClO5)2
0.4511000000000003,Cu-K-Mg-Nb-S,5,K2MgNb2(CuS2)4
0.0,Cu-K-Mg-Nb-S,5,K2MgNb2(CuS2)4
0.0479000000000002,C-K-Mg-Nb-O-P,6,K2MgNb2P2(CO7)2
0.1130999999999997,C-K-Mg-Nb-O-P,6,K2MgNb2P2(CO7)2
2.5286,K-Mg-O,3,K2MgO2
0.2225000000000001,K-Mg-P,3,K2MgP2