14
Lattice="6.02499407 0.0 0.0 0.0 6.02499407 0.0 0.0 0.0 4.3108496" Properties=species:S:1:pos:R:3:spacegroup_kinds:I:1 spacegroup="P 1" unit_cell=conventional occupancy="_JSON {\"0\": {\"V\": 1.0}, \"1\": {\"V\": 1.0}, \"2\": {\"P\": 1.0}, \"3\": {\"P\": 1.0}, \"4\": {\"O\": 1.0}, \"5\": {\"O\": 1.0}, \"6\": {\"O\": 1.0}, \"7\": {\"O\": 1.0}, \"8\": {\"O\": 1.0}, \"9\": {\"O\": 1.0}, \"10\": {\"O\": 1.0}, \"11\": {\"O\": 1.0}, \"12\": {\"O\": 1.0}, \"13\": {\"O\": 1.0}}" raw_energy_toy=-3.9 pbc="T T T"
V        0.00000000       3.01249703       3.67370715        0
V        3.01249703       0.00000000       0.63714245        1
P        0.00000000       0.00000000       2.15542480        2
P        3.01249703       3.01249703       2.15542480        3
O        0.29908396       4.82207683       3.04473014        4
O        4.21541427       3.31158099       3.04473014        5
O        5.72591011       1.20291724       3.04473014        6
O        1.80957980       2.71341308       3.04473014        7
O        2.71341308       4.21541427       1.26611946        8
O        4.82207683       5.72591011       1.26611946        9
O        3.31158099       1.80957980       1.26611946       10
O        1.20291724       0.29908396       1.26611946       11
O        0.00000000       3.01249703       0.70107584       12
O        3.01249703       0.00000000       3.60977376       13
